REMARK SMILES NC(=O)c1c(OCC(O)CO)cc(F)c(Nc2ccc(I)cc2F)c1Cl
REMARK SMILES IDX 6 1 5 2 4 3 25 4 15 5 12 6 13 7 26 8 14 9 2 10 1 11 3 12
REMARK SMILES IDX 16 15 17 17 18 18 23 19 19 20 22 21 20 22 24 23 21 24 7 25
REMARK SMILES IDX 8 26 9 27 10 29 11 30
REMARK H PARENT 1 13 1 14 16 16 9 28 11 31
ROOT
ATOM      1  O   UNL     1      -2.848  -0.789  -1.114  1.00  0.00    -0.490 OA
ENDROOT
BRANCH   1   2
ATOM      2  C   UNL     1      -1.480  -0.767  -1.010  1.00  0.00    +0.136 A 
ATOM      3  C   UNL     1      -0.811  -1.829  -0.379  1.00  0.00    +0.102 A 
ATOM      4  C   UNL     1       0.592  -1.808  -0.282  1.00  0.00    +0.084 A 
ATOM      5  C   UNL     1       1.342  -0.735  -0.823  1.00  0.00    +0.095 A 
ATOM      6  C   UNL     1      -0.753   0.270  -1.587  1.00  0.00    +0.088 A 
ATOM      7  C   UNL     1       0.635   0.284  -1.479  1.00  0.00    +0.151 A 
ATOM      8 Cl   UNL     1       1.468  -3.130   0.440  1.00  0.00    -0.081 Cl
ATOM      9  F   UNL     1       1.286   1.287  -2.088  1.00  0.00    -0.204 F 
BRANCH   3  10
ATOM     10  C   UNL     1      -1.591  -2.941   0.212  1.00  0.00    +0.254 C 
ATOM     11  N   UNL     1      -2.498  -3.553  -0.610  1.00  0.00    -0.365 N 
ATOM     12  O   UNL     1      -1.453  -3.291   1.376  1.00  0.00    -0.269 OA
ATOM     13  H   UNL     1      -2.793  -3.118  -1.474  1.00  0.00    +0.159 HD
ATOM     14  H   UNL     1      -3.116  -4.228  -0.179  1.00  0.00    +0.159 HD
ENDBRANCH   3  10
BRANCH   5  15
ATOM     15  N   UNL     1       2.750  -0.719  -0.683  1.00  0.00    -0.349 N 
ATOM     16  H   UNL     1       3.142  -1.636  -0.464  1.00  0.00    +0.167 HD
BRANCH  15  17
ATOM     17  C   UNL     1       3.675   0.316  -0.436  1.00  0.00    +0.075 A 
ATOM     18  C   UNL     1       3.312   1.624  -0.104  1.00  0.00    +0.030 A 
ATOM     19  C   UNL     1       5.047   0.042  -0.582  1.00  0.00    +0.147 A 
ATOM     20  C   UNL     1       4.285   2.616   0.086  1.00  0.00    +0.017 A 
ATOM     21  C   UNL     1       6.026   1.015  -0.398  1.00  0.00    +0.056 A 
ATOM     22  C   UNL     1       5.637   2.307  -0.063  1.00  0.00    +0.016 A 
ATOM     23  F   UNL     1       5.435  -1.204  -0.901  1.00  0.00    -0.205 F 
ATOM     24  I   UNL     1       7.073   3.780   0.218  1.00  0.00    -0.044 I 
ENDBRANCH  15  17
ENDBRANCH   5  15
ENDBRANCH   1   2
BRANCH   1  25
ATOM     25  C   UNL     1      -3.502   0.315  -0.453  1.00  0.00    +0.263 C 
BRANCH  25  26
ATOM     26  C   UNL     1      -3.461   0.190   1.076  1.00  0.00    +0.177 C 
BRANCH  26  27
ATOM     27  O   UNL     1      -2.169   0.590   1.561  1.00  0.00    -0.387 OA
ATOM     28  H   UNL     1      -2.250   0.552   2.536  1.00  0.00    +0.211 HD
ENDBRANCH  26  27
BRANCH  26  29
ATOM     29  C   UNL     1      -4.504   1.093   1.739  1.00  0.00    +0.191 C 
BRANCH  29  30
ATOM     30  O   UNL     1      -4.397   0.945   3.156  1.00  0.00    -0.394 OA
ATOM     31  H   UNL     1      -5.063   1.531   3.557  1.00  0.00    +0.210 HD
ENDBRANCH  29  30
ENDBRANCH  26  29
ENDBRANCH  25  26
ENDBRANCH   1  25
TORSDOF 9
