REMARK SMILES COc1cc2nccc(Oc3ccc(NC(=O)C4(C(=O)Nc5ccc(F)cc5)CC4)cc3F)c2cc1OC
REMARK SMILES IDX 11 1 12 2 13 3 14 4 31 5 32 6 33 7 10 8 9 9 3 10 4 11 36 12
REMARK SMILES IDX 5 13 35 14 6 15 34 16 7 17 8 18 2 19 1 20 37 21 38 22 15 23
REMARK SMILES IDX 16 24 17 25 18 27 29 28 30 29 19 30 20 31 21 32 22 34 23 35
REMARK SMILES IDX 28 36 24 37 27 38 25 39 26 40
REMARK H PARENT 15 26 21 33
ROOT
ATOM      1  C   UNL     1      -1.554   1.409  -0.945  1.00  0.00    +0.163 A 
ATOM      2  C   UNL     1      -0.610   2.125  -1.677  1.00  0.00    +0.052 A 
ATOM      3  C   UNL     1       0.722   2.153  -1.253  1.00  0.00    +0.030 A 
ATOM      4  C   UNL     1       1.126   1.452  -0.107  1.00  0.00    +0.044 A 
ATOM      5  C   UNL     1       0.178   0.718   0.607  1.00  0.00    +0.069 A 
ATOM      6  C   UNL     1      -1.150   0.692   0.181  1.00  0.00    +0.167 A 
ATOM      7  F   UNL     1      -2.029  -0.049   0.871  1.00  0.00    -0.203 F 
ENDROOT
BRANCH   1   8
ATOM      8  O   UNL     1      -2.841   1.394  -1.430  1.00  0.00    -0.454 OA
BRANCH   8   9
ATOM      9  C   UNL     1      -3.852   1.679  -0.532  1.00  0.00    +0.138 A 
ATOM     10  C   UNL     1      -7.212  -0.849  -0.222  1.00  0.00    +0.162 A 
ATOM     11  C   UNL     1      -7.097   0.328   0.527  1.00  0.00    +0.079 A 
ATOM     12  C   UNL     1      -6.181  -1.209  -1.105  1.00  0.00    +0.161 A 
ATOM     13  C   UNL     1      -5.992   1.161   0.424  1.00  0.00    +0.078 A 
ATOM     14  C   UNL     1      -5.064  -0.379  -1.221  1.00  0.00    +0.064 A 
ATOM     15  N   UNL     1      -5.956   2.278   1.173  1.00  0.00    -0.256 NA
ATOM     16  C   UNL     1      -4.958   0.808  -0.462  1.00  0.00    +0.047 A 
ATOM     17  C   UNL     1      -4.884   3.092   1.063  1.00  0.00    +0.115 A 
ATOM     18  C   UNL     1      -3.817   2.846   0.226  1.00  0.00    +0.068 A 
BRANCH  10  19
ATOM     19  O   UNL     1      -8.282  -1.707  -0.160  1.00  0.00    -0.493 OA
ATOM     20  C   UNL     1      -9.332  -1.388   0.743  1.00  0.00    +0.278 C 
ENDBRANCH  10  19
BRANCH  12  21
ATOM     21  O   UNL     1      -6.361  -2.375  -1.806  1.00  0.00    -0.493 OA
ATOM     22  C   UNL     1      -5.295  -2.819  -2.633  1.00  0.00    +0.278 C 
ENDBRANCH  12  21
ENDBRANCH   8   9
ENDBRANCH   1   8
BRANCH   4  23
ATOM     23  N   UNL     1       2.486   1.537   0.249  1.00  0.00    -0.325 N 
ATOM     24  C   UNL     1       3.121   0.896   1.291  1.00  0.00    +0.240 C 
ATOM     25  O   UNL     1       2.644   0.111   2.097  1.00  0.00    -0.273 OA
ATOM     26  H   UNL     1       3.080   2.096  -0.355  1.00  0.00    +0.169 HD
BRANCH  24  27
ATOM     27  C   UNL     1       4.580   1.225   1.383  1.00  0.00    +0.128 C 
ATOM     28  C   UNL     1       5.160   1.555   2.759  1.00  0.00    +0.028 C 
ATOM     29  C   UNL     1       4.957   2.657   1.769  1.00  0.00    +0.028 C 
BRANCH  27  30
ATOM     30  C   UNL     1       5.459   0.514   0.401  1.00  0.00    +0.240 C 
ATOM     31  O   UNL     1       5.711   1.067  -0.660  1.00  0.00    -0.274 OA
ATOM     32  N   UNL     1       5.859  -0.733   0.830  1.00  0.00    -0.325 N 
ATOM     33  H   UNL     1       5.478  -1.042   1.718  1.00  0.00    +0.169 HD
BRANCH  32  34
ATOM     34  C   UNL     1       6.690  -1.647   0.154  1.00  0.00    +0.041 A 
ATOM     35  C   UNL     1       6.910  -2.887   0.772  1.00  0.00    +0.029 A 
ATOM     36  C   UNL     1       7.300  -1.384  -1.076  1.00  0.00    +0.029 A 
ATOM     37  C   UNL     1       7.725  -3.848   0.167  1.00  0.00    +0.041 A 
ATOM     38  C   UNL     1       8.116  -2.345  -1.681  1.00  0.00    +0.041 A 
ATOM     39  C   UNL     1       8.321  -3.567  -1.055  1.00  0.00    +0.123 A 
ATOM     40  F   UNL     1       9.102  -4.486  -1.635  1.00  0.00    -0.207 F 
ENDBRANCH  32  34
ENDBRANCH  27  30
ENDBRANCH  24  27
ENDBRANCH   4  23
TORSDOF 8
