REMARK SMILES COc1cc2ncnc(Nc3ccc4[nH]c(C)nc4c3F)c2cc1OCC1CCN(C)CC1
REMARK SMILES IDX 3 1 4 2 5 3 6 4 7 5 8 6 9 7 22 8 23 9 24 10 2 11 1 12 25 13
REMARK SMILES IDX 26 14 27 15 28 16 33 17 29 18 32 19 30 20 31 21 10 22 11 24
REMARK SMILES IDX 12 25 20 26 13 27 19 28 14 29 18 30 15 31 16 32 21 33 17 35
REMARK H PARENT 10 23 15 34
ROOT
ATOM      1  C   UNL     1       1.565  -2.921   2.054  1.00  0.00    +0.162 A 
ATOM      2  C   UNL     1       0.521  -3.212   2.939  1.00  0.00    +0.079 A 
ATOM      3  C   UNL     1      -0.727  -2.611   2.829  1.00  0.00    +0.080 A 
ATOM      4  N   UNL     1      -1.672  -2.952   3.709  1.00  0.00    -0.236 NA
ATOM      5  C   UNL     1      -2.864  -2.364   3.570  1.00  0.00    +0.224 A 
ATOM      6  N   UNL     1      -3.195  -1.463   2.642  1.00  0.00    -0.219 NA
ATOM      7  C   UNL     1      -2.234  -1.109   1.770  1.00  0.00    +0.141 A 
ATOM      8  C   UNL     1      -0.944  -1.679   1.808  1.00  0.00    +0.047 A 
ATOM      9  C   UNL     1       0.106  -1.386   0.899  1.00  0.00    +0.064 A 
ATOM     10  C   UNL     1       1.355  -1.997   1.019  1.00  0.00    +0.162 A 
ENDROOT
BRANCH   1  11
ATOM     11  O   UNL     1       2.816  -3.484   2.117  1.00  0.00    -0.493 OA
ATOM     12  C   UNL     1       3.063  -4.433   3.145  1.00  0.00    +0.278 C 
ENDBRANCH   1  11
BRANCH  10  13
ATOM     13  O   UNL     1       2.418  -1.772   0.184  1.00  0.00    -0.489 OA
BRANCH  13  14
ATOM     14  C   UNL     1       2.286  -0.767  -0.821  1.00  0.00    +0.233 C 
BRANCH  14  15
ATOM     15  C   UNL     1       3.620  -0.645  -1.574  1.00  0.00    +0.029 C 
ATOM     16  C   UNL     1       3.461   0.292  -2.782  1.00  0.00    +0.022 C 
ATOM     17  C   UNL     1       4.772  -0.191  -0.657  1.00  0.00    +0.022 C 
ATOM     18  C   UNL     1       4.773   0.995  -3.117  1.00  0.00    +0.084 C 
ATOM     19  C   UNL     1       4.950   1.326  -0.680  1.00  0.00    +0.084 C 
ATOM     20  N   UNL     1       5.204   1.873  -2.021  1.00  0.00    -0.306 NA
ATOM     21  C   UNL     1       6.600   2.266  -2.195  1.00  0.00    +0.105 C 
ENDBRANCH  14  15
ENDBRANCH  13  14
ENDBRANCH  10  13
BRANCH   7  22
ATOM     22  N   UNL     1      -2.520  -0.129   0.784  1.00  0.00    -0.337 N 
ATOM     23  H   UNL     1      -1.825   0.614   0.829  1.00  0.00    +0.168 HD
BRANCH  22  24
ATOM     24  C   UNL     1      -3.780   0.421   0.429  1.00  0.00    +0.078 A 
ATOM     25  C   UNL     1      -4.968  -0.322   0.466  1.00  0.00    +0.031 A 
ATOM     26  C   UNL     1      -3.820   1.732  -0.089  1.00  0.00    +0.174 A 
ATOM     27  C   UNL     1      -6.199   0.213   0.055  1.00  0.00    +0.031 A 
ATOM     28  C   UNL     1      -5.036   2.296  -0.509  1.00  0.00    +0.126 A 
ATOM     29  C   UNL     1      -6.190   1.525  -0.422  1.00  0.00    +0.069 A 
ATOM     30  N   UNL     1      -5.325   3.541  -1.026  1.00  0.00    -0.231 NA
ATOM     31  N   UNL     1      -7.184   2.342  -0.897  1.00  0.00    -0.342 N 
ATOM     32  C   UNL     1      -6.622   3.545  -1.250  1.00  0.00    +0.104 A 
ATOM     33  F   UNL     1      -2.676   2.434  -0.164  1.00  0.00    -0.202 F 
ATOM     34  H   UNL     1      -8.161   2.102  -0.977  1.00  0.00    +0.168 HD
ATOM     35  C   UNL     1      -7.424   4.660  -1.804  1.00  0.00    +0.087 C 
ENDBRANCH  22  24
ENDBRANCH   7  22
TORSDOF 6
