REMARK SMILES CC(C)(C)c1nc(-c2cnc(N3CCOCC3)nc2N)nc(N2CCOCC2)n1
REMARK SMILES IDX 5 1 6 2 7 3 21 4 22 5 29 6 2 7 1 8 3 9 4 10 8 11 9 12 19 13
REMARK SMILES IDX 10 14 18 15 11 16 20 17 12 20 13 21 17 22 14 23 16 24 15 25
REMARK SMILES IDX 23 26 24 27 28 28 25 29 27 30 26 31
REMARK H PARENT 20 18 20 19
ROOT
ATOM      1  C   UNL     1      -2.142  -1.481   0.954  1.00  0.00    +0.140 A 
ATOM      2  N   UNL     1      -0.829  -1.262   0.984  1.00  0.00    -0.212 NA
ATOM      3  C   UNL     1      -0.414  -0.175   0.336  1.00  0.00    +0.170 A 
ATOM      4  N   UNL     1      -1.216   0.662  -0.328  1.00  0.00    -0.192 NA
ATOM      5  C   UNL     1      -2.516   0.378  -0.312  1.00  0.00    +0.229 A 
ATOM      6  N   UNL     1      -3.008  -0.675   0.338  1.00  0.00    -0.197 NA
ENDROOT
BRANCH   1   7
ATOM      7  C   UNL     1      -2.697  -2.670   1.734  1.00  0.00    +0.022 C 
ATOM      8  C   UNL     1      -1.658  -3.805   1.832  1.00  0.00    +0.019 C 
ATOM      9  C   UNL     1      -3.955  -3.237   1.047  1.00  0.00    +0.019 C 
ATOM     10  C   UNL     1      -3.062  -2.194   3.149  1.00  0.00    +0.019 C 
ENDBRANCH   1   7
BRANCH   3  11
ATOM     11  C   UNL     1       1.023   0.104   0.341  1.00  0.00    +0.080 A 
ATOM     12  C   UNL     1       1.948  -0.892   0.591  1.00  0.00    +0.131 A 
ATOM     13  C   UNL     1       1.607   1.339   0.088  1.00  0.00    +0.140 A 
ATOM     14  N   UNL     1       3.287  -0.726   0.593  1.00  0.00    -0.221 NA
ATOM     15  N   UNL     1       2.939   1.537   0.104  1.00  0.00    -0.195 NA
ATOM     16  C   UNL     1       3.756   0.503   0.343  1.00  0.00    +0.227 A 
BRANCH  13  17
ATOM     17  N   UNL     1       0.840   2.508  -0.085  1.00  0.00    -0.383 N 
ATOM     18  H   UNL     1       0.434   2.765   0.811  1.00  0.00    +0.158 HD
ATOM     19  H   UNL     1       0.053   2.288  -0.696  1.00  0.00    +0.158 HD
ENDBRANCH  13  17
BRANCH  16  20
ATOM     20  N   UNL     1       5.121   0.712   0.370  1.00  0.00    -0.336 N 
ATOM     21  C   UNL     1       5.661   1.920  -0.262  1.00  0.00    +0.148 C 
ATOM     22  C   UNL     1       5.972  -0.480   0.326  1.00  0.00    +0.148 C 
ATOM     23  C   UNL     1       6.674   1.533  -1.353  1.00  0.00    +0.181 C 
ATOM     24  C   UNL     1       7.448  -0.056   0.273  1.00  0.00    +0.181 C 
ATOM     25  O   UNL     1       7.776   0.744  -0.874  1.00  0.00    -0.378 OA
ENDBRANCH  16  20
ENDBRANCH   3  11
BRANCH   5  26
ATOM     26  N   UNL     1      -3.399   1.244  -0.962  1.00  0.00    -0.336 N 
ATOM     27  C   UNL     1      -2.830   1.905  -2.149  1.00  0.00    +0.148 C 
ATOM     28  C   UNL     1      -4.741   0.676  -1.191  1.00  0.00    +0.148 C 
ATOM     29  C   UNL     1      -3.842   2.900  -2.739  1.00  0.00    +0.181 C 
ATOM     30  C   UNL     1      -5.662   1.730  -1.821  1.00  0.00    +0.181 C 
ATOM     31  O   UNL     1      -5.097   2.267  -3.027  1.00  0.00    -0.378 OA
ENDBRANCH   5  26
TORSDOF 5
