REMARK SMILES CNC(=O)c1cc(Oc2ccc(NC(=O)Nc3ccc(Cl)c(C(F)(F)F)c3)c(F)c2)ccn1
REMARK SMILES IDX 9 1 10 2 11 3 12 4 28 5 29 6 30 7 8 8 7 9 5 10 6 11 33 12
REMARK SMILES IDX 32 13 31 14 3 15 2 16 4 17 1 18 13 20 14 21 15 22 16 23
REMARK SMILES IDX 17 26 18 27 27 28 19 29 22 30 20 31 21 32 23 33 24 34 25 35
REMARK SMILES IDX 26 36
REMARK H PARENT 2 19 13 24 16 25
ROOT
ATOM      1  C   UNL     1      -1.873   1.054   0.527  1.00  0.00    +0.130 A 
ATOM      2  C   UNL     1      -0.843   1.140   1.465  1.00  0.00    +0.049 A 
ATOM      3  C   UNL     1       0.489   0.970   1.069  1.00  0.00    +0.033 A 
ATOM      4  C   UNL     1       0.797   0.728  -0.270  1.00  0.00    +0.079 A 
ATOM      5  C   UNL     1      -0.252   0.677  -1.199  1.00  0.00    +0.150 A 
ATOM      6  F   UNL     1       0.029   0.465  -2.496  1.00  0.00    -0.205 F 
ATOM      7  C   UNL     1      -1.580   0.841  -0.819  1.00  0.00    +0.088 A 
ENDROOT
BRANCH   1   8
ATOM      8  O   UNL     1      -3.156   1.261   0.978  1.00  0.00    -0.457 OA
BRANCH   8   9
ATOM      9  C   UNL     1      -4.104   0.335   0.606  1.00  0.00    +0.131 A 
ATOM     10  C   UNL     1      -6.285  -0.102  -0.213  1.00  0.00    +0.131 A 
ATOM     11  C   UNL     1      -5.314   0.823   0.132  1.00  0.00    +0.081 A 
ATOM     12  N   UNL     1      -6.125  -1.454  -0.104  1.00  0.00    -0.251 NA
ATOM     13  C   UNL     1      -4.942  -1.882   0.386  1.00  0.00    +0.116 A 
ATOM     14  C   UNL     1      -3.911  -1.036   0.757  1.00  0.00    +0.067 A 
BRANCH  10  15
ATOM     15  C   UNL     1      -7.604   0.367  -0.750  1.00  0.00    +0.269 C 
ATOM     16  N   UNL     1      -8.504  -0.645  -1.006  1.00  0.00    -0.354 N 
ATOM     17  O   UNL     1      -7.829   1.556  -0.945  1.00  0.00    -0.268 OA
ATOM     18  C   UNL     1      -9.772  -0.409  -1.639  1.00  0.00    +0.143 C 
ATOM     19  H   UNL     1      -8.151  -1.593  -0.895  1.00  0.00    +0.163 HD
ENDBRANCH  10  15
ENDBRANCH   8   9
ENDBRANCH   1   8
BRANCH   4  20
ATOM     20  N   UNL     1       2.105   0.552  -0.771  1.00  0.00    -0.305 N 
ATOM     21  C   UNL     1       3.273   0.398  -0.043  1.00  0.00    +0.323 C 
ATOM     22  O   UNL     1       3.328   0.310   1.176  1.00  0.00    -0.248 OA
ATOM     23  N   UNL     1       4.368   0.361  -0.893  1.00  0.00    -0.308 N 
ATOM     24  H   UNL     1       2.155   0.374  -1.765  1.00  0.00    +0.171 HD
ATOM     25  H   UNL     1       4.200   0.678  -1.836  1.00  0.00    +0.171 HD
BRANCH  23  26
ATOM     26  C   UNL     1       5.714   0.120  -0.549  1.00  0.00    +0.043 A 
ATOM     27  C   UNL     1       6.671   0.308  -1.550  1.00  0.00    +0.028 A 
ATOM     28  C   UNL     1       6.135  -0.310   0.712  1.00  0.00    +0.040 A 
ATOM     29  C   UNL     1       8.025   0.084  -1.289  1.00  0.00    +0.023 A 
ATOM     30  C   UNL     1       7.500  -0.542   0.993  1.00  0.00    +0.076 A 
ATOM     31  C   UNL     1       8.438  -0.337  -0.023  1.00  0.00    +0.053 A 
ATOM     32 Cl   UNL     1      10.128  -0.591   0.219  1.00  0.00    -0.084 Cl
BRANCH  30  33
ATOM     33  C   UNL     1       7.916  -1.003   2.364  1.00  0.00    +0.417 C 
ATOM     34  F   UNL     1       8.763  -0.135   2.983  1.00  0.00    -0.166 F 
ATOM     35  F   UNL     1       8.548  -2.210   2.348  1.00  0.00    -0.166 F 
ATOM     36  F   UNL     1       6.870  -1.160   3.225  1.00  0.00    -0.166 F 
ENDBRANCH  30  33
ENDBRANCH  23  26
ENDBRANCH   4  20
TORSDOF 6
