REMARK SMILES O=NN(CCCl)C(=O)NC1CCCCC1
REMARK SMILES IDX 3 1 2 2 1 3 4 4 5 5 6 6 7 7 8 8 9 9 10 11 11 12 15 13 12 14
REMARK SMILES IDX 14 15 13 16
REMARK H PARENT 9 10
ROOT
ATOM      1  N   UNL     1      -2.474  -0.446  -0.996  1.00  0.00    -0.177 N 
ENDROOT
BRANCH   1   2
ATOM      2  N   UNL     1      -2.419  -1.946  -0.960  1.00  0.00    +0.061 NA
ATOM      3  O   UNL     1      -1.316  -2.429  -0.693  1.00  0.00    -0.125 OA
ENDBRANCH   1   2
BRANCH   1   4
ATOM      4  C   UNL     1      -3.813   0.115  -1.142  1.00  0.00    +0.169 C 
BRANCH   4   5
ATOM      5  C   UNL     1      -4.428   0.470   0.206  1.00  0.00    +0.133 C 
ATOM      6 Cl   UNL     1      -6.094   1.062  -0.004  1.00  0.00    -0.125 Cl
ENDBRANCH   4   5
ENDBRANCH   1   4
BRANCH   1   7
ATOM      7  C   UNL     1      -1.404   0.422  -0.793  1.00  0.00    +0.340 C 
ATOM      8  O   UNL     1      -1.570   1.640  -0.694  1.00  0.00    -0.247 OA
ATOM      9  N   UNL     1      -0.152  -0.132  -0.734  1.00  0.00    -0.334 N 
ATOM     10  H   UNL     1      -0.116  -1.132  -0.579  1.00  0.00    +0.165 HD
BRANCH   9  11
ATOM     11  C   UNL     1       1.037   0.646  -0.406  1.00  0.00    +0.083 C 
ATOM     12  C   UNL     1       1.147   0.875   1.114  1.00  0.00    +0.025 C 
ATOM     13  C   UNL     1       2.280  -0.041  -0.997  1.00  0.00    +0.025 C 
ATOM     14  C   UNL     1       2.007  -0.189   1.786  1.00  0.00    +0.002 C 
ATOM     15  C   UNL     1       3.540   0.289  -0.207  1.00  0.00    +0.002 C 
ATOM     16  C   UNL     1       3.437  -0.191   1.242  1.00  0.00    +0.000 C 
ENDBRANCH   9  11
ENDBRANCH   1   7
TORSDOF 5
