REMARK SMILES C#Cc1cccc(Nc2ncnc3cc(OCCOC)c(OCCOC)cc23)c1
REMARK SMILES IDX 9 1 28 2 27 3 21 4 15 5 14 6 13 7 12 8 11 9 10 10 8 11 7 13
REMARK SMILES IDX 2 14 3 15 29 16 4 17 5 18 6 19 1 20 22 21 23 22 24 23 25 24
REMARK SMILES IDX 26 25 16 26 17 27 18 28 19 29 20 30
REMARK H PARENT 8 12
ROOT
ATOM      1  C6  AQ4 A 999      23.410  -0.217  53.908  1.00  0.00    +0.141 A 
ATOM      2  C7  AQ4 A 999      22.037  -0.309  53.572  1.00  0.00    +0.047 A 
ATOM      3  C8  AQ4 A 999      21.501   0.476  52.546  1.00  0.00    +0.064 A 
ATOM      4  C9  AQ4 A 999      20.143   0.376  52.218  1.00  0.00    +0.162 A 
ATOM      5  C13 AQ4 A 999      19.301  -0.535  52.923  1.00  0.00    +0.163 A 
ATOM      6  C17 AQ4 A 999      19.845  -1.318  53.942  1.00  0.00    +0.079 A 
ATOM      7  C18 AQ4 A 999      21.199  -1.222  54.264  1.00  0.00    +0.080 A 
ATOM      8  N2  AQ4 A 999      21.747  -2.039  55.319  1.00  0.00    -0.236 NA
ATOM      9  C19 AQ4 A 999      23.117  -1.934  55.642  1.00  0.00    +0.224 A 
ATOM     10  N3  AQ4 A 999      23.943  -1.023  54.940  1.00  0.00    -0.219 NA
ENDROOT
BRANCH   1  11
ATOM     11  N1  AQ4 A 999      24.289   0.712  53.215  1.00  0.00    -0.340 N 
ATOM     12  H   UNL     1      23.790   1.318  52.549  1.00  0.00    +0.168 HD
BRANCH  11  13
ATOM     13  C5  AQ4 A 999      25.725   0.972  53.258  1.00  0.00    +0.041 A 
ATOM     14  C2  AQ4 A 999      28.841  -1.022  53.432  1.00  0.00    -0.070 C 
ATOM     15  C3  AQ4 A 999      27.989   0.094  53.366  1.00  0.00    +0.026 A 
ATOM     16  C4  AQ4 A 999      26.606  -0.119  53.323  1.00  0.00    +0.043 A 
ATOM     17  C22 AQ4 A 999      28.508   1.410  53.344  1.00  0.00    +0.017 A 
ATOM     18  C21 AQ4 A 999      27.625   2.509  53.279  1.00  0.00    +0.003 A 
ATOM     19  C20 AQ4 A 999      26.234   2.292  53.236  1.00  0.00    +0.026 A 
ATOM     20  C1  AQ4 A 999      29.552  -1.989  53.496  1.00  0.00    +0.010 C 
ENDBRANCH  11  13
ENDBRANCH   1  11
BRANCH   4  21
ATOM     21  O1  AQ4 A 999      19.589   1.220  51.120  1.00  0.00    -0.487 OA
BRANCH  21  22
ATOM     22  C10 AQ4 A 999      20.550   1.362  50.041  1.00  0.00    +0.258 C 
BRANCH  22  23
ATOM     23  C11 AQ4 A 999      20.235   2.645  49.262  1.00  0.00    +0.201 C 
BRANCH  23  24
ATOM     24  O2  AQ4 A 999      18.990   2.485  48.543  1.00  0.00    -0.381 OA
ATOM     25  C12 AQ4 A 999      17.712   2.618  49.399  1.00  0.00    +0.195 C 
ENDBRANCH  23  24
ENDBRANCH  22  23
ENDBRANCH  21  22
ENDBRANCH   4  21
BRANCH   5  26
ATOM     26  O3  AQ4 A 999      17.828  -0.679  52.597  1.00  0.00    -0.487 OA
BRANCH  26  27
ATOM     27  C14 AQ4 A 999      17.227   0.601  52.220  1.00  0.00    +0.258 C 
BRANCH  27  28
ATOM     28  C15 AQ4 A 999      15.703   0.494  52.066  1.00  0.00    +0.201 C 
BRANCH  28  29
ATOM     29  O4  AQ4 A 999      15.108   0.167  53.335  1.00  0.00    -0.381 OA
ATOM     30  C16 AQ4 A 999      13.843  -0.695  53.221  1.00  0.00    +0.195 C 
ENDBRANCH  28  29
ENDBRANCH  27  28
ENDBRANCH  26  27
ENDBRANCH   5  26
TORSDOF 10
