MODEL 1
REMARK VINA RESULT:    -7.843      0.000      0.000
REMARK INTER + INTRA:         -26.466
REMARK INTER:                 -22.286
REMARK INTRA:                  -4.180
REMARK UNBOUND:                -4.180
REMARK SMILES CO[C@H]1C[C@@H]2CC[C@@H](C)[C@@](O)(O2)C(=O)C(=O)N2CCCC[C@H]2C(=O)O[C@H]([C@H](C)C[C@@H]2CC[C@@H](OCCO)[C@H](OC)C2)CC(=O)[C@H](C)/C=C(\C)[C@@H](O)[C@@H](OC)C(=O)[C@H](C)C[C@H](C)/C=C/C=C/C=C/1C
REMARK SMILES IDX 17 1 18 2 19 3 20 4 21 5 22 6 15 7 16 8 13 9 14 10 10 11
REMARK SMILES IDX 5 12 6 13 12 14 7 15 8 16 9 17 4 18 3 19 2 20 1 21 67 22
REMARK SMILES IDX 66 23 68 24 65 25 64 26 63 27 62 28 60 29 61 30 59 31 57 32
REMARK SMILES IDX 58 33 11 35 23 37 24 38 25 39 26 40 27 41 28 42 29 43 30 44
REMARK SMILES IDX 31 45 41 46 32 47 38 48 33 49 39 50 40 51 34 52 35 53 36 54
REMARK SMILES IDX 37 55 42 57 43 58 44 59 45 60 46 61 47 62 48 63 49 64 50 65
REMARK SMILES IDX 51 66 52 68 53 69 54 70 55 71 56 72
REMARK H PARENT 11 36 37 56 51 67
REMARK Flexibility Score:  319.900
ROOT
ATOM      1  N   UNL     1      18.884   3.958  49.261  1.00  0.00    -0.322 N 
ATOM      2  C   UNL     1      17.862   4.622  48.455  1.00  0.00    +0.121 C 
ATOM      3  C   UNL     1      17.004   3.575  47.740  1.00  0.00    +0.022 C 
ATOM      4  C   UNL     1      16.438   2.545  48.726  1.00  0.00    +0.005 C 
ATOM      5  C   UNL     1      17.528   1.955  49.634  1.00  0.00    +0.037 C 
ATOM      6  C   UNL     1      18.331   3.078  50.306  1.00  0.00    +0.195 C 
ENDROOT
BRANCH   1   7
ATOM      7  C   UNL     1      20.122   3.609  48.712  1.00  0.00    +0.296 C 
ATOM      8  O   UNL     1      20.470   2.461  48.452  1.00  0.00    -0.265 OA
BRANCH   7   9
ATOM      9  C   UNL     1      21.154   4.683  48.443  1.00  0.00    +0.279 C 
ATOM     10  O   UNL     1      21.058   5.362  47.427  1.00  0.00    -0.282 OA
BRANCH   9  11
ATOM     11  C   UNL     1      22.254   4.771  49.525  1.00  0.00    +0.239 C 
ATOM     12  C   UNL     1      23.248   6.492  50.877  1.00  0.00    +0.125 C 
ATOM     13  C   UNL     1      24.447   5.534  51.003  1.00  0.00    +0.033 C 
ATOM     14  O   UNL     1      22.401   6.172  49.769  1.00  0.00    -0.340 OA
ATOM     15  C   UNL     1      24.814   4.926  49.656  1.00  0.00    +0.012 C 
ATOM     16  C   UNL     1      23.607   4.246  48.973  1.00  0.00    +0.054 C 
ATOM     17  C   UNL     1      23.718   2.720  49.064  1.00  0.00    +0.014 C 
BRANCH  12  18
ATOM     18  C   UNL     1      23.729   7.947  50.729  1.00  0.00    +0.068 C 
BRANCH  18  19
ATOM     19  C   UNL     1      24.363   8.312  49.372  1.00  0.00    +0.146 C 
BRANCH  19  20
ATOM     20  O   UNL     1      23.640   7.609  48.344  1.00  0.00    -0.377 OA
ATOM     21  C   UNL     1      23.018   8.478  47.407  1.00  0.00    +0.195 C 
ENDBRANCH  19  20
BRANCH  19  22
ATOM     22  C   UNL     1      25.833   8.000  49.127  1.00  0.00    -0.045 C 
ATOM     23  C   UNL     1      26.285   7.222  48.123  1.00  0.00    +0.002 C 
ATOM     24  C   UNL     1      26.747   8.643  50.147  1.00  0.00    +0.042 C 
BRANCH  23  25
ATOM     25  C   UNL     1      27.667   6.888  47.863  1.00  0.00    +0.000 C 
ATOM     26  C   UNL     1      28.296   5.842  48.422  1.00  0.00    -0.000 C 
BRANCH  26  27
ATOM     27  C   UNL     1      29.663   5.507  48.108  1.00  0.00    -0.004 C 
ATOM     28  C   UNL     1      30.598   6.416  47.797  1.00  0.00    -0.024 C 
BRANCH  28  29
ATOM     29  C   UNL     1      32.046   6.054  47.542  1.00  0.00    +0.009 C 
ATOM     30  C   UNL     1      32.956   6.953  48.378  1.00  0.00    +0.012 C 
BRANCH  29  31
ATOM     31  C   UNL     1      32.244   4.558  47.861  1.00  0.00    +0.018 C 
BRANCH  31  32
ATOM     32  C   UNL     1      32.943   3.736  46.764  1.00  0.00    +0.056 CG0
ATOM     33  C   UNL     1      32.709   2.242  46.978  1.00  0.00    +0.016 C 
ATOM     34  G   UNL     1      32.588   4.200  45.342  1.00  0.00    +0.000 G0
ENDBRANCH  31  32
ENDBRANCH  29  31
ENDBRANCH  28  29
ENDBRANCH  26  27
ENDBRANCH  23  25
ENDBRANCH  19  22
ENDBRANCH  18  19
ENDBRANCH  12  18
BRANCH  11  35
ATOM     35  O   UNL     1      21.926   4.085  50.724  1.00  0.00    -0.359 OA
ATOM     36  H   UNL     1      22.723   3.619  51.047  1.00  0.00    +0.214 HD
ENDBRANCH  11  35
ENDBRANCH   9  11
ENDBRANCH   7   9
ENDBRANCH   1   7
BRANCH   6  37
ATOM     37  C   UNL     1      19.316   2.648  51.419  1.00  0.00    +0.329 C 
ATOM     38  O   UNL     1      19.726   3.400  52.296  1.00  0.00    -0.250 OA
BRANCH  37  39
ATOM     39  O   UNL     1      19.642   1.327  51.326  1.00  0.00    -0.460 OA
BRANCH  39  40
ATOM     40  C   UNL     1      19.234   0.463  52.420  1.00  0.00    +0.186 C 
BRANCH  40  41
ATOM     41  C   UNL     1      20.531  -0.137  53.053  1.00  0.00    +0.028 C 
ATOM     42  C   UNL     1      20.768   0.365  54.484  1.00  0.00    +0.011 C 
BRANCH  41  43
ATOM     43  C   UNL     1      21.802   0.196  52.220  1.00  0.00    +0.010 C 
BRANCH  43  44
ATOM     44  C   UNL     1      23.021   0.719  53.005  1.00  0.00    -0.008 C 
ATOM     45  C   UNL     1      23.664   1.946  52.349  1.00  0.00    +0.006 C 
ATOM     46  C   UNL     1      24.075  -0.388  53.138  1.00  0.00    +0.038 C 
ATOM     47  C   UNL     1      24.873   2.430  53.141  1.00  0.00    +0.035 C 
ATOM     48  C   UNL     1      25.281   0.058  53.974  1.00  0.00    +0.147 C 
ATOM     49  C   UNL     1      25.922   1.337  53.386  1.00  0.00    +0.147 C 
BRANCH  48  50
ATOM     50  O   UNL     1      26.189  -1.058  53.964  1.00  0.00    -0.379 OA
ATOM     51  C   UNL     1      26.741  -1.342  52.685  1.00  0.00    +0.195 C 
ENDBRANCH  48  50
BRANCH  49  52
ATOM     52  O   UNL     1      26.884   1.848  54.328  1.00  0.00    -0.373 OA
BRANCH  52  53
ATOM     53  C   UNL     1      28.156   2.142  53.734  1.00  0.00    +0.188 C 
BRANCH  53  54
ATOM     54  C   UNL     1      29.180   1.184  54.336  1.00  0.00    +0.184 C 
BRANCH  54  55
ATOM     55  O   UNL     1      28.559   0.400  55.355  1.00  0.00    -0.394 OA
ATOM     56  H   UNL     1      27.637   0.721  55.390  1.00  0.00    +0.210 HD
ENDBRANCH  54  55
ENDBRANCH  53  54
ENDBRANCH  52  53
ENDBRANCH  49  52
ENDBRANCH  43  44
ENDBRANCH  41  43
ENDBRANCH  40  41
BRANCH  40  57
ATOM     57  C   UNL     1      18.285  -0.586  51.821  1.00  0.00    +0.121 C 
BRANCH  57  58
ATOM     58  C   UNL     1      17.462  -1.284  52.891  1.00  0.00    +0.143 C 
ATOM     59  O   UNL     1      18.013  -1.994  53.735  1.00  0.00    -0.299 OA
BRANCH  58  60
ATOM     60  C   UNL     1      15.943  -1.087  52.862  1.00  0.00    +0.076 C 
ATOM     61  C   UNL     1      15.298  -2.050  51.862  1.00  0.00    +0.020 C 
BRANCH  60  62
ATOM     62  C   UNL     1      15.673   0.347  52.467  1.00  0.00    -0.014 C 
ATOM     63  C   UNL     1      14.602   1.120  52.754  1.00  0.00    -0.045 C 
ATOM     64  C   UNL     1      13.410   0.636  53.548  1.00  0.00    +0.042 C 
BRANCH  63  65
ATOM     65  C   UNL     1      14.476   2.583  52.337  1.00  0.00    +0.176 C 
BRANCH  65  66
ATOM     66  O   UNL     1      13.369   2.634  51.420  1.00  0.00    -0.386 OA
ATOM     67  H   UNL     1      13.063   1.706  51.363  1.00  0.00    +0.211 HD
ENDBRANCH  65  66
BRANCH  65  68
ATOM     68  C   UNL     1      14.278   3.700  53.395  1.00  0.00    +0.217 C 
BRANCH  68  69
ATOM     69  O   UNL     1      15.444   4.543  53.357  1.00  0.00    -0.371 OA
ATOM     70  C   UNL     1      16.079   4.565  52.086  1.00  0.00    +0.196 C 
ENDBRANCH  68  69
BRANCH  68  71
ATOM     71  C   UNL     1      12.912   4.408  53.224  1.00  0.00    +0.167 CG0
ATOM     72  O   UNL     1      12.102   4.474  54.157  1.00  0.00    -0.296 OA
ATOM     73  G   UNL     1      12.527   5.027  51.871  1.00  0.00    +0.000 G0
ENDBRANCH  68  71
ENDBRANCH  65  68
ENDBRANCH  63  65
ENDBRANCH  60  62
ENDBRANCH  58  60
ENDBRANCH  57  58
ENDBRANCH  40  57
ENDBRANCH  39  40
ENDBRANCH  37  39
ENDBRANCH   6  37
TORSDOF 12
                                                                                                                                                        
ENDMDL
MODEL 2
REMARK VINA RESULT:    -7.352      3.460     12.871
REMARK INTER + INTRA:         -25.070
REMARK INTER:                 -20.667
REMARK INTRA:                  -4.403
REMARK UNBOUND:                -4.180
REMARK SMILES CO[C@H]1C[C@@H]2CC[C@@H](C)[C@@](O)(O2)C(=O)C(=O)N2CCCC[C@H]2C(=O)O[C@H]([C@H](C)C[C@@H]2CC[C@@H](OCCO)[C@H](OC)C2)CC(=O)[C@H](C)/C=C(\C)[C@@H](O)[C@@H](OC)C(=O)[C@H](C)C[C@H](C)/C=C/C=C/C=C/1C
REMARK SMILES IDX 17 1 18 2 19 3 20 4 21 5 22 6 15 7 16 8 13 9 14 10 10 11
REMARK SMILES IDX 5 12 6 13 12 14 7 15 8 16 9 17 4 18 3 19 2 20 1 21 67 22
REMARK SMILES IDX 66 23 68 24 65 25 64 26 63 27 62 28 60 29 61 30 59 31 57 32
REMARK SMILES IDX 58 33 11 35 23 37 24 38 25 39 26 40 27 41 28 42 29 43 30 44
REMARK SMILES IDX 31 45 41 46 32 47 38 48 33 49 39 50 40 51 34 52 35 53 36 54
REMARK SMILES IDX 37 55 42 57 43 58 44 59 45 60 46 61 47 62 48 63 49 64 50 65
REMARK SMILES IDX 51 66 52 68 53 69 54 70 55 71 56 72
REMARK H PARENT 11 36 37 56 51 67
REMARK Flexibility Score:  319.900
ROOT
ATOM      1  N   UNL     1      21.108   2.226  51.107  1.00  0.00    -0.322 N 
ATOM      2  C   UNL     1      21.393   0.912  50.537  1.00  0.00    +0.121 C 
ATOM      3  C   UNL     1      20.699   0.774  49.180  1.00  0.00    +0.022 C 
ATOM      4  C   UNL     1      21.052   1.940  48.247  1.00  0.00    +0.005 C 
ATOM      5  C   UNL     1      20.849   3.304  48.925  1.00  0.00    +0.037 C 
ATOM      6  C   UNL     1      21.582   3.346  50.273  1.00  0.00    +0.195 C 
ENDROOT
BRANCH   1   7
ATOM      7  C   UNL     1      19.970   2.442  51.892  1.00  0.00    +0.296 C 
ATOM      8  O   UNL     1      19.958   3.082  52.939  1.00  0.00    -0.265 OA
BRANCH   7   9
ATOM      9  C   UNL     1      18.649   1.827  51.484  1.00  0.00    +0.279 C 
ATOM     10  O   UNL     1      18.538   0.606  51.473  1.00  0.00    -0.282 OA
BRANCH   9  11
ATOM     11  C   UNL     1      17.575   2.866  51.096  1.00  0.00    +0.239 C 
ATOM     12  C   UNL     1      15.727   3.962  52.176  1.00  0.00    +0.125 C 
ATOM     13  C   UNL     1      15.185   4.190  50.753  1.00  0.00    +0.033 C 
ATOM     14  O   UNL     1      16.708   2.922  52.232  1.00  0.00    -0.340 OA
ATOM     15  C   UNL     1      15.298   2.928  49.909  1.00  0.00    +0.012 C 
ATOM     16  C   UNL     1      16.735   2.363  49.891  1.00  0.00    +0.054 C 
ATOM     17  C   UNL     1      17.417   2.652  48.548  1.00  0.00    +0.014 C 
BRANCH  12  18
ATOM     18  C   UNL     1      14.582   3.615  53.144  1.00  0.00    +0.068 C 
BRANCH  18  19
ATOM     19  C   UNL     1      13.312   3.022  52.501  1.00  0.00    +0.146 C 
BRANCH  19  20
ATOM     20  O   UNL     1      12.190   3.818  52.926  1.00  0.00    -0.377 OA
ATOM     21  C   UNL     1      12.452   4.565  54.106  1.00  0.00    +0.195 C 
ENDBRANCH  19  20
BRANCH  19  22
ATOM     22  C   UNL     1      12.929   1.579  52.799  1.00  0.00    -0.045 C 
ATOM     23  C   UNL     1      12.846   1.058  54.040  1.00  0.00    +0.002 C 
ATOM     24  C   UNL     1      12.665   0.772  51.547  1.00  0.00    +0.042 C 
BRANCH  23  25
ATOM     25  C   UNL     1      12.502  -0.307  54.367  1.00  0.00    +0.000 C 
ATOM     26  C   UNL     1      11.668  -0.644  55.363  1.00  0.00    -0.000 C 
BRANCH  26  27
ATOM     27  C   UNL     1      11.307  -2.013  55.637  1.00  0.00    -0.004 C 
ATOM     28  C   UNL     1      11.957  -2.792  56.513  1.00  0.00    -0.024 C 
BRANCH  28  29
ATOM     29  C   UNL     1      11.520  -4.203  56.843  1.00  0.00    +0.009 C 
ATOM     30  C   UNL     1      11.994  -5.158  55.746  1.00  0.00    +0.012 C 
BRANCH  29  31
ATOM     31  C   UNL     1      12.077  -4.581  58.231  1.00  0.00    +0.018 C 
BRANCH  31  32
ATOM     32  C   UNL     1      11.959  -6.068  58.606  1.00  0.00    +0.056 CG0
ATOM     33  C   UNL     1      13.341  -6.685  58.808  1.00  0.00    +0.016 C 
ATOM     34  G   UNL     1      11.012  -6.321  59.791  1.00  0.00    +0.000 G0
ENDBRANCH  31  32
ENDBRANCH  29  31
ENDBRANCH  28  29
ENDBRANCH  26  27
ENDBRANCH  23  25
ENDBRANCH  19  22
ENDBRANCH  18  19
ENDBRANCH  12  18
BRANCH  11  35
ATOM     35  O   UNL     1      18.106   4.152  50.808  1.00  0.00    -0.359 OA
ATOM     36  H   UNL     1      18.646   4.446  51.568  1.00  0.00    +0.214 HD
ENDBRANCH  11  35
ENDBRANCH   9  11
ENDBRANCH   7   9
ENDBRANCH   1   7
BRANCH   6  37
ATOM     37  C   UNL     1      21.657   4.725  50.971  1.00  0.00    +0.329 C 
ATOM     38  O   UNL     1      20.695   5.469  51.120  1.00  0.00    -0.250 OA
BRANCH  37  39
ATOM     39  O   UNL     1      22.913   4.993  51.432  1.00  0.00    -0.460 OA
BRANCH  39  40
ATOM     40  C   UNL     1      23.853   5.583  50.495  1.00  0.00    +0.186 C 
BRANCH  40  41
ATOM     41  C   UNL     1      25.156   4.722  50.532  1.00  0.00    +0.028 C 
ATOM     42  C   UNL     1      26.106   5.051  49.373  1.00  0.00    +0.011 C 
BRANCH  41  43
ATOM     43  C   UNL     1      24.857   3.196  50.477  1.00  0.00    +0.010 C 
BRANCH  43  44
ATOM     44  C   UNL     1      25.297   2.365  51.698  1.00  0.00    -0.008 C 
ATOM     45  C   UNL     1      26.723   1.819  51.559  1.00  0.00    +0.006 C 
ATOM     46  C   UNL     1      24.331   1.192  51.911  1.00  0.00    +0.038 C 
ATOM     47  C   UNL     1      27.123   0.992  52.774  1.00  0.00    +0.035 C 
ATOM     48  C   UNL     1      24.682   0.372  53.159  1.00  0.00    +0.147 C 
ATOM     49  C   UNL     1      26.140  -0.143  53.093  1.00  0.00    +0.147 C 
BRANCH  48  50
ATOM     50  O   UNL     1      23.728  -0.704  53.192  1.00  0.00    -0.379 OA
ATOM     51  C   UNL     1      22.875  -0.685  54.328  1.00  0.00    +0.195 C 
ENDBRANCH  48  50
BRANCH  49  52
ATOM     52  O   UNL     1      26.495  -0.692  54.376  1.00  0.00    -0.373 OA
BRANCH  52  53
ATOM     53  C   UNL     1      26.812   0.311  55.351  1.00  0.00    +0.188 C 
BRANCH  53  54
ATOM     54  C   UNL     1      26.619  -0.310  56.731  1.00  0.00    +0.184 C 
BRANCH  54  55
ATOM     55  O   UNL     1      25.404  -1.060  56.753  1.00  0.00    -0.394 OA
ATOM     56  H   UNL     1      24.938  -0.803  55.933  1.00  0.00    +0.210 HD
ENDBRANCH  54  55
ENDBRANCH  53  54
ENDBRANCH  52  53
ENDBRANCH  49  52
ENDBRANCH  43  44
ENDBRANCH  41  43
ENDBRANCH  40  41
BRANCH  40  57
ATOM     57  C   UNL     1      24.052   7.042  50.931  1.00  0.00    +0.121 C 
BRANCH  57  58
ATOM     58  C   UNL     1      23.431   8.019  49.947  1.00  0.00    +0.143 C 
ATOM     59  O   UNL     1      22.221   8.255  49.984  1.00  0.00    -0.299 OA
BRANCH  58  60
ATOM     60  C   UNL     1      24.354   8.670  48.912  1.00  0.00    +0.076 C 
ATOM     61  C   UNL     1      24.317   7.889  47.596  1.00  0.00    +0.020 C 
BRANCH  60  62
ATOM     62  C   UNL     1      25.754   8.678  49.485  1.00  0.00    -0.014 C 
ATOM     63  C   UNL     1      26.741   9.582  49.301  1.00  0.00    -0.045 C 
ATOM     64  C   UNL     1      26.608  10.799  48.416  1.00  0.00    +0.042 C 
BRANCH  63  65
ATOM     65  C   UNL     1      28.103   9.500  49.987  1.00  0.00    +0.176 C 
BRANCH  65  66
ATOM     66  O   UNL     1      27.827   9.416  51.396  1.00  0.00    -0.386 OA
ATOM     67  H   UNL     1      28.376   8.665  51.703  1.00  0.00    +0.211 HD
ENDBRANCH  65  66
BRANCH  65  68
ATOM     68  C   UNL     1      29.112   8.377  49.626  1.00  0.00    +0.217 C 
BRANCH  68  69
ATOM     69  O   UNL     1      29.132   8.260  48.192  1.00  0.00    -0.371 OA
ATOM     70  C   UNL     1      28.866   6.941  47.732  1.00  0.00    +0.196 C 
ENDBRANCH  68  69
BRANCH  68  71
ATOM     71  C   UNL     1      30.479   8.598  50.318  1.00  0.00    +0.167 CG0
ATOM     72  O   UNL     1      30.570   8.676  51.548  1.00  0.00    -0.296 OA
ATOM     73  G   UNL     1      31.755   8.748  49.475  1.00  0.00    +0.000 G0
ENDBRANCH  68  71
ENDBRANCH  65  68
ENDBRANCH  63  65
ENDBRANCH  60  62
ENDBRANCH  58  60
ENDBRANCH  57  58
ENDBRANCH  40  57
ENDBRANCH  39  40
ENDBRANCH  37  39
ENDBRANCH   6  37
TORSDOF 12
                                                                                                                                                        
ENDMDL
MODEL 3
REMARK VINA RESULT:    -7.346      3.892     13.533
REMARK INTER + INTRA:         -25.053
REMARK INTER:                 -18.708
REMARK INTRA:                  -6.346
REMARK UNBOUND:                -4.180
REMARK SMILES CO[C@H]1C[C@@H]2CC[C@@H](C)[C@@](O)(O2)C(=O)C(=O)N2CCCC[C@H]2C(=O)O[C@H]([C@H](C)C[C@@H]2CC[C@@H](OCCO)[C@H](OC)C2)CC(=O)[C@H](C)/C=C(\C)[C@@H](O)[C@@H](OC)C(=O)[C@H](C)C[C@H](C)/C=C/C=C/C=C/1C
REMARK SMILES IDX 17 1 18 2 19 3 20 4 21 5 22 6 15 7 16 8 13 9 14 10 10 11
REMARK SMILES IDX 5 12 6 13 12 14 7 15 8 16 9 17 4 18 3 19 2 20 1 21 67 22
REMARK SMILES IDX 66 23 68 24 65 25 64 26 63 27 62 28 60 29 61 30 59 31 57 32
REMARK SMILES IDX 58 33 11 35 23 37 24 38 25 39 26 40 27 41 28 42 29 43 30 44
REMARK SMILES IDX 31 45 41 46 32 47 38 48 33 49 39 50 40 51 34 52 35 53 36 54
REMARK SMILES IDX 37 55 42 57 43 58 44 59 45 60 46 61 47 62 48 63 49 64 50 65
REMARK SMILES IDX 51 66 52 68 53 69 54 70 55 71 56 72
REMARK H PARENT 11 36 37 56 51 67
REMARK Flexibility Score:  319.900
ROOT
ATOM      1  N   UNL     1      24.959   4.421  50.815  1.00  0.00    -0.322 N 
ATOM      2  C   UNL     1      26.082   3.498  50.957  1.00  0.00    +0.121 C 
ATOM      3  C   UNL     1      26.702   3.221  49.585  1.00  0.00    +0.022 C 
ATOM      4  C   UNL     1      27.061   4.523  48.857  1.00  0.00    +0.005 C 
ATOM      5  C   UNL     1      25.887   5.513  48.831  1.00  0.00    +0.037 C 
ATOM      6  C   UNL     1      25.337   5.729  50.248  1.00  0.00    +0.195 C 
ENDROOT
BRANCH   1   7
ATOM      7  C   UNL     1      23.668   3.952  50.550  1.00  0.00    +0.296 C 
ATOM      8  O   UNL     1      23.177   3.861  49.428  1.00  0.00    -0.265 OA
BRANCH   7   9
ATOM      9  C   UNL     1      22.761   3.558  51.696  1.00  0.00    +0.279 C 
ATOM     10  O   UNL     1      22.457   4.402  52.532  1.00  0.00    -0.282 OA
BRANCH   9  11
ATOM     11  C   UNL     1      22.338   2.073  51.671  1.00  0.00    +0.239 C 
ATOM     12  C   UNL     1      20.288   0.839  51.438  1.00  0.00    +0.125 C 
ATOM     13  C   UNL     1      21.040  -0.309  52.134  1.00  0.00    +0.033 C 
ATOM     14  O   UNL     1      20.909   2.111  51.648  1.00  0.00    -0.340 OA
ATOM     15  C   UNL     1      21.822   0.192  53.341  1.00  0.00    +0.012 C 
ATOM     16  C   UNL     1      22.767   1.359  52.982  1.00  0.00    +0.054 C 
ATOM     17  C   UNL     1      24.224   0.886  52.935  1.00  0.00    +0.014 C 
BRANCH  12  18
ATOM     18  C   UNL     1      18.832   0.912  51.931  1.00  0.00    +0.068 C 
BRANCH  18  19
ATOM     19  C   UNL     1      17.829  -0.010  51.209  1.00  0.00    +0.146 C 
BRANCH  19  20
ATOM     20  O   UNL     1      16.789   0.818  50.655  1.00  0.00    -0.377 OA
ATOM     21  C   UNL     1      16.721   2.104  51.256  1.00  0.00    +0.195 C 
ENDBRANCH  19  20
BRANCH  19  22
ATOM     22  C   UNL     1      17.113  -1.097  51.997  1.00  0.00    -0.045 C 
ATOM     23  C   UNL     1      17.690  -1.833  52.969  1.00  0.00    +0.002 C 
ATOM     24  C   UNL     1      15.676  -1.285  51.564  1.00  0.00    +0.042 C 
BRANCH  23  25
ATOM     25  C   UNL     1      17.053  -2.882  53.731  1.00  0.00    +0.000 C 
ATOM     26  C   UNL     1      16.947  -4.150  53.304  1.00  0.00    -0.000 C 
BRANCH  26  27
ATOM     27  C   UNL     1      16.346  -5.187  54.107  1.00  0.00    -0.004 C 
ATOM     28  C   UNL     1      15.058  -5.185  54.480  1.00  0.00    -0.024 C 
BRANCH  28  29
ATOM     29  C   UNL     1      14.425  -6.317  55.261  1.00  0.00    +0.009 C 
ATOM     30  C   UNL     1      13.952  -7.405  54.297  1.00  0.00    +0.012 C 
BRANCH  29  31
ATOM     31  C   UNL     1      15.452  -6.845  56.284  1.00  0.00    +0.018 C 
BRANCH  31  32
ATOM     32  C   UNL     1      14.861  -7.649  57.455  1.00  0.00    +0.056 CG0
ATOM     33  C   UNL     1      15.972  -8.186  58.355  1.00  0.00    +0.016 C 
ATOM     34  G   UNL     1      13.779  -6.883  58.232  1.00  0.00    +0.000 G0
ENDBRANCH  31  32
ENDBRANCH  29  31
ENDBRANCH  28  29
ENDBRANCH  26  27
ENDBRANCH  23  25
ENDBRANCH  19  22
ENDBRANCH  18  19
ENDBRANCH  12  18
BRANCH  11  35
ATOM     35  O   UNL     1      22.839   1.359  50.550  1.00  0.00    -0.359 OA
ATOM     36  H   UNL     1      23.543   0.752  50.853  1.00  0.00    +0.214 HD
ENDBRANCH  11  35
ENDBRANCH   9  11
ENDBRANCH   7   9
ENDBRANCH   1   7
BRANCH   6  37
ATOM     37  C   UNL     1      24.300   6.865  50.418  1.00  0.00    +0.329 C 
ATOM     38  O   UNL     1      24.076   7.432  51.481  1.00  0.00    -0.250 OA
BRANCH  37  39
ATOM     39  O   UNL     1      23.695   7.181  49.237  1.00  0.00    -0.460 OA
BRANCH  39  40
ATOM     40  C   UNL     1      23.565   8.590  48.913  1.00  0.00    +0.186 C 
BRANCH  40  41
ATOM     41  C   UNL     1      22.085   8.838  48.476  1.00  0.00    +0.028 C 
ATOM     42  C   UNL     1      21.822  10.306  48.113  1.00  0.00    +0.011 C 
BRANCH  41  43
ATOM     43  C   UNL     1      21.068   8.436  49.583  1.00  0.00    +0.010 C 
BRANCH  43  44
ATOM     44  C   UNL     1      20.234   7.168  49.322  1.00  0.00    -0.008 C 
ATOM     45  C   UNL     1      20.445   6.090  50.392  1.00  0.00    +0.006 C 
ATOM     46  C   UNL     1      20.582   6.583  47.947  1.00  0.00    +0.038 C 
ATOM     47  C   UNL     1      19.618   4.845  50.098  1.00  0.00    +0.035 C 
ATOM     48  C   UNL     1      19.727   5.357  47.606  1.00  0.00    +0.147 C 
ATOM     49  C   UNL     1      19.857   4.267  48.697  1.00  0.00    +0.147 C 
BRANCH  48  50
ATOM     50  O   UNL     1      20.202   4.903  46.326  1.00  0.00    -0.379 OA
ATOM     51  C   UNL     1      21.301   4.004  46.403  1.00  0.00    +0.195 C 
ENDBRANCH  48  50
BRANCH  49  52
ATOM     52  O   UNL     1      18.863   3.253  48.458  1.00  0.00    -0.373 OA
BRANCH  52  53
ATOM     53  C   UNL     1      17.585   3.791  48.089  1.00  0.00    +0.188 C 
BRANCH  53  54
ATOM     54  C   UNL     1      16.812   2.690  47.369  1.00  0.00    +0.184 C 
BRANCH  54  55
ATOM     55  O   UNL     1      17.491   2.339  46.163  1.00  0.00    -0.394 OA
ATOM     56  H   UNL     1      16.827   1.856  45.634  1.00  0.00    +0.210 HD
ENDBRANCH  54  55
ENDBRANCH  53  54
ENDBRANCH  52  53
ENDBRANCH  49  52
ENDBRANCH  43  44
ENDBRANCH  41  43
ENDBRANCH  40  41
BRANCH  40  57
ATOM     57  C   UNL     1      24.600   8.886  47.817  1.00  0.00    +0.121 C 
BRANCH  57  58
ATOM     58  C   UNL     1      25.903   9.413  48.394  1.00  0.00    +0.143 C 
ATOM     59  O   UNL     1      25.950   9.815  49.558  1.00  0.00    -0.299 OA
BRANCH  58  60
ATOM     60  C   UNL     1      27.129   9.443  47.474  1.00  0.00    +0.076 C 
ATOM     61  C   UNL     1      27.051   8.316  46.442  1.00  0.00    +0.020 C 
BRANCH  60  62
ATOM     62  C   UNL     1      28.358   9.284  48.341  1.00  0.00    -0.014 C 
ATOM     63  C   UNL     1      29.603   9.771  48.146  1.00  0.00    -0.045 C 
ATOM     64  C   UNL     1      30.004  10.585  46.938  1.00  0.00    +0.042 C 
BRANCH  63  65
ATOM     65  C   UNL     1      30.751   9.581  49.134  1.00  0.00    +0.176 C 
BRANCH  65  66
ATOM     66  O   UNL     1      30.733  10.743  49.982  1.00  0.00    -0.386 OA
ATOM     67  H   UNL     1      30.368  11.450  49.411  1.00  0.00    +0.211 HD
ENDBRANCH  65  66
BRANCH  65  68
ATOM     68  C   UNL     1      30.823   8.324  50.042  1.00  0.00    +0.217 C 
BRANCH  68  69
ATOM     69  O   UNL     1      32.032   7.620  49.708  1.00  0.00    -0.371 OA
ATOM     70  C   UNL     1      31.828   6.233  49.472  1.00  0.00    +0.196 C 
ENDBRANCH  68  69
BRANCH  68  71
ATOM     71  C   UNL     1      30.628   8.689  51.534  1.00  0.00    +0.167 CG0
ATOM     72  O   UNL     1      31.576   9.065  52.232  1.00  0.00    -0.296 OA
ATOM     73  G   UNL     1      29.240   8.565  52.183  1.00  0.00    +0.000 G0
ENDBRANCH  68  71
ENDBRANCH  65  68
ENDBRANCH  63  65
ENDBRANCH  60  62
ENDBRANCH  58  60
ENDBRANCH  57  58
ENDBRANCH  40  57
ENDBRANCH  39  40
ENDBRANCH  37  39
ENDBRANCH   6  37
TORSDOF 12
                                                                                                                                                        
ENDMDL
MODEL 4
REMARK VINA RESULT:    -7.308      1.574      2.239
REMARK INTER + INTRA:         -24.947
REMARK INTER:                 -20.133
REMARK INTRA:                  -4.813
REMARK UNBOUND:                -4.180
REMARK SMILES CO[C@H]1C[C@@H]2CC[C@@H](C)[C@@](O)(O2)C(=O)C(=O)N2CCCC[C@H]2C(=O)O[C@H]([C@H](C)C[C@@H]2CC[C@@H](OCCO)[C@H](OC)C2)CC(=O)[C@H](C)/C=C(\C)[C@@H](O)[C@@H](OC)C(=O)[C@H](C)C[C@H](C)/C=C/C=C/C=C/1C
REMARK SMILES IDX 17 1 18 2 19 3 20 4 21 5 22 6 15 7 16 8 13 9 14 10 10 11
REMARK SMILES IDX 5 12 6 13 12 14 7 15 8 16 9 17 4 18 3 19 2 20 1 21 67 22
REMARK SMILES IDX 66 23 68 24 65 25 64 26 63 27 62 28 60 29 61 30 59 31 57 32
REMARK SMILES IDX 58 33 11 35 23 37 24 38 25 39 26 40 27 41 28 42 29 43 30 44
REMARK SMILES IDX 31 45 41 46 32 47 38 48 33 49 39 50 40 51 34 52 35 53 36 54
REMARK SMILES IDX 37 55 42 57 43 58 44 59 45 60 46 61 47 62 48 63 49 64 50 65
REMARK SMILES IDX 51 66 52 68 53 69 54 70 55 71 56 72
REMARK H PARENT 11 36 37 56 51 67
REMARK Flexibility Score:  319.900
ROOT
ATOM      1  N   UNL     1      19.933   3.730  49.663  1.00  0.00    -0.322 N 
ATOM      2  C   UNL     1      18.980   4.752  50.087  1.00  0.00    +0.121 C 
ATOM      3  C   UNL     1      17.885   4.911  49.029  1.00  0.00    +0.022 C 
ATOM      4  C   UNL     1      17.234   3.563  48.688  1.00  0.00    +0.005 C 
ATOM      5  C   UNL     1      18.277   2.484  48.361  1.00  0.00    +0.037 C 
ATOM      6  C   UNL     1      19.328   2.398  49.477  1.00  0.00    +0.195 C 
ENDROOT
BRANCH   1   7
ATOM      7  C   UNL     1      21.033   4.056  48.862  1.00  0.00    +0.296 C 
ATOM      8  O   UNL     1      20.984   4.225  47.647  1.00  0.00    -0.265 OA
BRANCH   7   9
ATOM      9  C   UNL     1      22.407   4.176  49.485  1.00  0.00    +0.279 C 
ATOM     10  O   UNL     1      23.153   3.203  49.477  1.00  0.00    -0.282 OA
BRANCH   9  11
ATOM     11  C   UNL     1      22.692   5.566  50.095  1.00  0.00    +0.239 C 
ATOM     12  C   UNL     1      23.177   7.773  49.275  1.00  0.00    +0.125 C 
ATOM     13  C   UNL     1      23.794   8.023  50.663  1.00  0.00    +0.033 C 
ATOM     14  O   UNL     1      23.044   6.381  48.974  1.00  0.00    -0.340 OA
ATOM     15  C   UNL     1      24.673   6.857  51.096  1.00  0.00    +0.012 C 
ATOM     16  C   UNL     1      23.925   5.508  51.038  1.00  0.00    +0.054 C 
ATOM     17  C   UNL     1      23.556   5.028  52.446  1.00  0.00    +0.014 C 
BRANCH  12  18
ATOM     18  C   UNL     1      24.023   8.439  48.176  1.00  0.00    +0.068 C 
BRANCH  18  19
ATOM     19  C   UNL     1      25.193   9.316  48.664  1.00  0.00    +0.146 C 
BRANCH  19  20
ATOM     20  O   UNL     1      25.153  10.553  47.928  1.00  0.00    -0.377 OA
ATOM     21  C   UNL     1      24.238  10.525  46.841  1.00  0.00    +0.195 C 
ENDBRANCH  19  20
BRANCH  19  22
ATOM     22  C   UNL     1      26.619   8.802  48.527  1.00  0.00    -0.045 C 
ATOM     23  C   UNL     1      26.959   7.676  47.865  1.00  0.00    +0.002 C 
ATOM     24  C   UNL     1      27.629   9.680  49.233  1.00  0.00    +0.042 C 
BRANCH  23  25
ATOM     25  C   UNL     1      28.295   7.145  47.724  1.00  0.00    +0.000 C 
ATOM     26  C   UNL     1      28.689   5.976  48.252  1.00  0.00    -0.000 C 
BRANCH  26  27
ATOM     27  C   UNL     1      30.017   5.449  48.055  1.00  0.00    -0.004 C 
ATOM     28  C   UNL     1      30.966   6.073  47.343  1.00  0.00    -0.024 C 
BRANCH  28  29
ATOM     29  C   UNL     1      32.377   5.542  47.208  1.00  0.00    +0.009 C 
ATOM     30  C   UNL     1      33.076   5.586  48.566  1.00  0.00    +0.012 C 
BRANCH  29  31
ATOM     31  C   UNL     1      32.313   4.115  46.626  1.00  0.00    +0.018 C 
BRANCH  31  32
ATOM     32  C   UNL     1      33.072   3.042  47.426  1.00  0.00    +0.056 CG0
ATOM     33  C   UNL     1      32.655   1.642  46.982  1.00  0.00    +0.016 C 
ATOM     34  G   UNL     1      34.596   3.244  47.417  1.00  0.00    +0.000 G0
ENDBRANCH  31  32
ENDBRANCH  29  31
ENDBRANCH  28  29
ENDBRANCH  26  27
ENDBRANCH  23  25
ENDBRANCH  19  22
ENDBRANCH  18  19
ENDBRANCH  12  18
BRANCH  11  35
ATOM     35  O   UNL     1      21.583   6.119  50.789  1.00  0.00    -0.359 OA
ATOM     36  H   UNL     1      21.884   6.426  51.668  1.00  0.00    +0.214 HD
ENDBRANCH  11  35
ENDBRANCH   9  11
ENDBRANCH   7   9
ENDBRANCH   1   7
BRANCH   6  37
ATOM     37  C   UNL     1      20.316   1.210  49.402  1.00  0.00    +0.329 C 
ATOM     38  O   UNL     1      21.229   1.131  48.588  1.00  0.00    -0.250 OA
BRANCH  37  39
ATOM     39  O   UNL     1      20.071   0.284  50.372  1.00  0.00    -0.460 OA
BRANCH  39  40
ATOM     40  C   UNL     1      19.880   0.773  51.726  1.00  0.00    +0.186 C 
BRANCH  40  41
ATOM     41  C   UNL     1      21.133   0.348  52.560  1.00  0.00    +0.028 C 
ATOM     42  C   UNL     1      20.840   0.295  54.065  1.00  0.00    +0.011 C 
BRANCH  41  43
ATOM     43  C   UNL     1      22.336   1.312  52.347  1.00  0.00    +0.010 C 
BRANCH  43  44
ATOM     44  C   UNL     1      23.734   0.665  52.299  1.00  0.00    -0.008 C 
ATOM     45  C   UNL     1      24.101  -0.048  53.605  1.00  0.00    +0.006 C 
ATOM     46  C   UNL     1      24.796   1.729  51.994  1.00  0.00    +0.038 C 
ATOM     47  C   UNL     1      25.493  -0.664  53.530  1.00  0.00    +0.035 C 
ATOM     48  C   UNL     1      26.200   1.126  51.863  1.00  0.00    +0.147 C 
ATOM     49  C   UNL     1      26.586   0.338  53.137  1.00  0.00    +0.147 C 
BRANCH  48  50
ATOM     50  O   UNL     1      27.076   2.243  51.629  1.00  0.00    -0.379 OA
ATOM     51  C   UNL     1      26.681   3.070  50.542  1.00  0.00    +0.195 C 
ENDBRANCH  48  50
BRANCH  49  52
ATOM     52  O   UNL     1      27.794  -0.402  52.874  1.00  0.00    -0.373 OA
BRANCH  52  53
ATOM     53  C   UNL     1      28.735  -0.349  53.955  1.00  0.00    +0.188 C 
BRANCH  53  54
ATOM     54  C   UNL     1      28.874   1.111  54.375  1.00  0.00    +0.184 C 
BRANCH  54  55
ATOM     55  O   UNL     1      29.404   1.872  53.290  1.00  0.00    -0.394 OA
ATOM     56  H   UNL     1      29.821   1.213  52.702  1.00  0.00    +0.210 HD
ENDBRANCH  54  55
ENDBRANCH  53  54
ENDBRANCH  52  53
ENDBRANCH  49  52
ENDBRANCH  43  44
ENDBRANCH  41  43
ENDBRANCH  40  41
BRANCH  40  57
ATOM     57  C   UNL     1      18.559   0.171  52.229  1.00  0.00    +0.121 C 
BRANCH  57  58
ATOM     58  C   UNL     1      17.356   0.972  51.762  1.00  0.00    +0.143 C 
ATOM     59  O   UNL     1      17.327   2.196  51.911  1.00  0.00    -0.299 OA
BRANCH  58  60
ATOM     60  C   UNL     1      16.192   0.203  51.128  1.00  0.00    +0.076 C 
ATOM     61  C   UNL     1      16.568  -0.275  49.723  1.00  0.00    +0.020 C 
BRANCH  60  62
ATOM     62  C   UNL     1      15.003   1.137  51.070  1.00  0.00    -0.014 C 
ATOM     63  C   UNL     1      14.009   1.302  51.970  1.00  0.00    -0.045 C 
ATOM     64  C   UNL     1      13.903   0.513  53.254  1.00  0.00    +0.042 C 
BRANCH  63  65
ATOM     65  C   UNL     1      12.887   2.326  51.814  1.00  0.00    +0.176 C 
BRANCH  65  66
ATOM     66  O   UNL     1      12.002   2.109  52.927  1.00  0.00    -0.386 OA
ATOM     67  H   UNL     1      11.974   2.975  53.383  1.00  0.00    +0.211 HD
ENDBRANCH  65  66
BRANCH  65  68
ATOM     68  C   UNL     1      13.199   3.845  51.736  1.00  0.00    +0.217 C 
BRANCH  68  69
ATOM     69  O   UNL     1      12.523   4.365  50.576  1.00  0.00    -0.371 OA
ATOM     70  C   UNL     1      13.400   4.639  49.492  1.00  0.00    +0.196 C 
ENDBRANCH  68  69
BRANCH  68  71
ATOM     71  C   UNL     1      12.905   4.555  53.080  1.00  0.00    +0.167 CG0
ATOM     72  O   UNL     1      13.338   4.109  54.149  1.00  0.00    -0.296 OA
ATOM     73  G   UNL     1      12.042   5.826  53.109  1.00  0.00    +0.000 G0
ENDBRANCH  68  71
ENDBRANCH  65  68
ENDBRANCH  63  65
ENDBRANCH  60  62
ENDBRANCH  58  60
ENDBRANCH  57  58
ENDBRANCH  40  57
ENDBRANCH  39  40
ENDBRANCH  37  39
ENDBRANCH   6  37
TORSDOF 12
                                                                                                                                                        
ENDMDL
MODEL 5
REMARK VINA RESULT:    -7.205      2.093      3.792
REMARK INTER + INTRA:         -24.653
REMARK INTER:                 -20.444
REMARK INTRA:                  -4.209
REMARK UNBOUND:                -4.180
REMARK SMILES CO[C@H]1C[C@@H]2CC[C@@H](C)[C@@](O)(O2)C(=O)C(=O)N2CCCC[C@H]2C(=O)O[C@H]([C@H](C)C[C@@H]2CC[C@@H](OCCO)[C@H](OC)C2)CC(=O)[C@H](C)/C=C(\C)[C@@H](O)[C@@H](OC)C(=O)[C@H](C)C[C@H](C)/C=C/C=C/C=C/1C
REMARK SMILES IDX 17 1 18 2 19 3 20 4 21 5 22 6 15 7 16 8 13 9 14 10 10 11
REMARK SMILES IDX 5 12 6 13 12 14 7 15 8 16 9 17 4 18 3 19 2 20 1 21 67 22
REMARK SMILES IDX 66 23 68 24 65 25 64 26 63 27 62 28 60 29 61 30 59 31 57 32
REMARK SMILES IDX 58 33 11 35 23 37 24 38 25 39 26 40 27 41 28 42 29 43 30 44
REMARK SMILES IDX 31 45 41 46 32 47 38 48 33 49 39 50 40 51 34 52 35 53 36 54
REMARK SMILES IDX 37 55 42 57 43 58 44 59 45 60 46 61 47 62 48 63 49 64 50 65
REMARK SMILES IDX 51 66 52 68 53 69 54 70 55 71 56 72
REMARK H PARENT 11 36 37 56 51 67
REMARK Flexibility Score:  319.900
ROOT
ATOM      1  N   UNL     1      20.818   4.660  48.875  1.00  0.00    -0.322 N 
ATOM      2  C   UNL     1      19.797   5.313  49.690  1.00  0.00    +0.121 C 
ATOM      3  C   UNL     1      18.452   5.282  48.960  1.00  0.00    +0.022 C 
ATOM      4  C   UNL     1      18.080   3.857  48.529  1.00  0.00    +0.005 C 
ATOM      5  C   UNL     1      19.225   3.164  47.774  1.00  0.00    +0.037 C 
ATOM      6  C   UNL     1      20.526   3.245  48.584  1.00  0.00    +0.195 C 
ENDROOT
BRANCH   1   7
ATOM      7  C   UNL     1      21.547   5.378  47.920  1.00  0.00    +0.296 C 
ATOM      8  O   UNL     1      21.142   5.648  46.793  1.00  0.00    -0.265 OA
BRANCH   7   9
ATOM      9  C   UNL     1      22.955   5.835  48.238  1.00  0.00    +0.279 C 
ATOM     10  O   UNL     1      23.821   4.994  48.453  1.00  0.00    -0.282 OA
BRANCH   9  11
ATOM     11  C   UNL     1      23.115   7.370  48.272  1.00  0.00    +0.239 C 
ATOM     12  C   UNL     1      23.690   9.106  46.711  1.00  0.00    +0.125 C 
ATOM     13  C   UNL     1      24.073   9.932  47.953  1.00  0.00    +0.033 C 
ATOM     14  O   UNL     1      23.630   7.702  46.979  1.00  0.00    -0.340 OA
ATOM     15  C   UNL     1      24.889   9.104  48.937  1.00  0.00    +0.012 C 
ATOM     16  C   UNL     1      24.181   7.786  49.321  1.00  0.00    +0.054 C 
ATOM     17  C   UNL     1      23.599   7.873  50.737  1.00  0.00    +0.014 C 
BRANCH  12  18
ATOM     18  C   UNL     1      24.692   9.349  45.568  1.00  0.00    +0.068 C 
BRANCH  18  19
ATOM     19  C   UNL     1      25.872  10.285  45.894  1.00  0.00    +0.146 C 
BRANCH  19  20
ATOM     20  O   UNL     1      26.150  11.071  44.719  1.00  0.00    -0.377 OA
ATOM     21  C   UNL     1      26.896  10.362  43.739  1.00  0.00    +0.195 C 
ENDBRANCH  19  20
BRANCH  19  22
ATOM     22  C   UNL     1      27.207   9.685  46.311  1.00  0.00    -0.045 C 
ATOM     23  C   UNL     1      27.538   8.387  46.152  1.00  0.00    +0.002 C 
ATOM     24  C   UNL     1      28.132  10.699  46.949  1.00  0.00    +0.042 C 
BRANCH  23  25
ATOM     25  C   UNL     1      28.785   7.773  46.546  1.00  0.00    +0.000 C 
ATOM     26  C   UNL     1      28.933   7.045  47.664  1.00  0.00    -0.000 C 
BRANCH  26  27
ATOM     27  C   UNL     1      30.179   6.407  48.008  1.00  0.00    -0.004 C 
ATOM     28  C   UNL     1      31.239   6.355  47.189  1.00  0.00    -0.024 C 
BRANCH  28  29
ATOM     29  C   UNL     1      32.564   5.745  47.594  1.00  0.00    +0.009 C 
ATOM     30  C   UNL     1      33.076   6.423  48.865  1.00  0.00    +0.012 C 
BRANCH  29  31
ATOM     31  C   UNL     1      32.373   4.225  47.776  1.00  0.00    +0.018 C 
BRANCH  31  32
ATOM     32  C   UNL     1      32.545   3.381  46.502  1.00  0.00    +0.056 CG0
ATOM     33  C   UNL     1      31.757   2.077  46.607  1.00  0.00    +0.016 C 
ATOM     34  G   UNL     1      32.242   4.161  45.213  1.00  0.00    +0.000 G0
ENDBRANCH  31  32
ENDBRANCH  29  31
ENDBRANCH  28  29
ENDBRANCH  26  27
ENDBRANCH  23  25
ENDBRANCH  19  22
ENDBRANCH  18  19
ENDBRANCH  12  18
BRANCH  11  35
ATOM     35  O   UNL     1      21.901   8.063  48.521  1.00  0.00    -0.359 OA
ATOM     36  H   UNL     1      21.429   8.184  47.673  1.00  0.00    +0.214 HD
ENDBRANCH  11  35
ENDBRANCH   9  11
ENDBRANCH   7   9
ENDBRANCH   1   7
BRANCH   6  37
ATOM     37  C   UNL     1      21.714   2.402  48.062  1.00  0.00    +0.329 C 
ATOM     38  O   UNL     1      22.177   2.500  46.931  1.00  0.00    -0.250 OA
BRANCH  37  39
ATOM     39  O   UNL     1      22.205   1.567  49.022  1.00  0.00    -0.460 OA
BRANCH  39  40
ATOM     40  C   UNL     1      21.794   1.814  50.393  1.00  0.00    +0.186 C 
BRANCH  40  41
ATOM     41  C   UNL     1      22.941   2.612  51.091  1.00  0.00    +0.028 C 
ATOM     42  C   UNL     1      24.279   2.478  50.351  1.00  0.00    +0.011 C 
BRANCH  41  43
ATOM     43  C   UNL     1      23.168   2.154  52.561  1.00  0.00    +0.010 C 
BRANCH  43  44
ATOM     44  C   UNL     1      24.428   1.308  52.830  1.00  0.00    -0.008 C 
ATOM     45  C   UNL     1      24.149   0.105  53.738  1.00  0.00    +0.006 C 
ATOM     46  C   UNL     1      25.518   2.177  53.471  1.00  0.00    +0.038 C 
ATOM     47  C   UNL     1      25.415  -0.703  53.996  1.00  0.00    +0.035 C 
ATOM     48  C   UNL     1      26.821   1.400  53.695  1.00  0.00    +0.147 C 
ATOM     49  C   UNL     1      26.574   0.136  54.553  1.00  0.00    +0.147 C 
BRANCH  48  50
ATOM     50  O   UNL     1      27.714   2.326  54.339  1.00  0.00    -0.379 OA
ATOM     51  C   UNL     1      28.994   2.414  53.727  1.00  0.00    +0.195 C 
ENDBRANCH  48  50
BRANCH  49  52
ATOM     52  O   UNL     1      27.762  -0.678  54.531  1.00  0.00    -0.373 OA
BRANCH  52  53
ATOM     53  C   UNL     1      28.140  -1.089  53.210  1.00  0.00    +0.188 C 
BRANCH  53  54
ATOM     54  C   UNL     1      29.206  -2.172  53.352  1.00  0.00    +0.184 C 
BRANCH  54  55
ATOM     55  O   UNL     1      28.584  -3.458  53.355  1.00  0.00    -0.394 OA
ATOM     56  H   UNL     1      27.680  -3.299  53.019  1.00  0.00    +0.210 HD
ENDBRANCH  54  55
ENDBRANCH  53  54
ENDBRANCH  52  53
ENDBRANCH  49  52
ENDBRANCH  43  44
ENDBRANCH  41  43
ENDBRANCH  40  41
BRANCH  40  57
ATOM     57  C   UNL     1      21.512   0.441  51.022  1.00  0.00    +0.121 C 
BRANCH  57  58
ATOM     58  C   UNL     1      20.292   0.470  51.927  1.00  0.00    +0.143 C 
ATOM     59  O   UNL     1      20.344  -0.017  53.058  1.00  0.00    -0.299 OA
BRANCH  58  60
ATOM     60  C   UNL     1      19.010   1.101  51.373  1.00  0.00    +0.076 C 
ATOM     61  C   UNL     1      18.873   2.547  51.855  1.00  0.00    +0.020 C 
BRANCH  60  62
ATOM     62  C   UNL     1      17.843   0.268  51.855  1.00  0.00    -0.014 C 
ATOM     63  C   UNL     1      16.894  -0.363  51.129  1.00  0.00    -0.045 C 
ATOM     64  C   UNL     1      16.824  -0.316  49.621  1.00  0.00    +0.042 C 
BRANCH  63  65
ATOM     65  C   UNL     1      15.792  -1.224  51.743  1.00  0.00    +0.176 C 
BRANCH  65  66
ATOM     66  O   UNL     1      16.172  -1.427  53.115  1.00  0.00    -0.386 OA
ATOM     67  H   UNL     1      16.486  -0.547  53.408  1.00  0.00    +0.211 HD
ENDBRANCH  65  66
BRANCH  65  68
ATOM     68  C   UNL     1      14.310  -0.761  51.716  1.00  0.00    +0.217 C 
BRANCH  68  69
ATOM     69  O   UNL     1      13.497  -1.928  51.499  1.00  0.00    -0.371 OA
ATOM     70  C   UNL     1      12.956  -2.466  52.699  1.00  0.00    +0.196 C 
ENDBRANCH  68  69
BRANCH  68  71
ATOM     71  C   UNL     1      13.963   0.100  52.955  1.00  0.00    +0.167 CG0
ATOM     72  O   UNL     1      14.726   0.987  53.355  1.00  0.00    -0.296 OA
ATOM     73  G   UNL     1      12.660  -0.154  53.731  1.00  0.00    +0.000 G0
ENDBRANCH  68  71
ENDBRANCH  65  68
ENDBRANCH  63  65
ENDBRANCH  60  62
ENDBRANCH  58  60
ENDBRANCH  57  58
ENDBRANCH  40  57
ENDBRANCH  39  40
ENDBRANCH  37  39
ENDBRANCH   6  37
TORSDOF 12
                                                                                                                                                        
ENDMDL
MODEL 6
REMARK VINA RESULT:    -7.191      2.911     12.134
REMARK INTER + INTRA:         -24.614
REMARK INTER:                 -20.097
REMARK INTRA:                  -4.518
REMARK UNBOUND:                -4.180
REMARK SMILES CO[C@H]1C[C@@H]2CC[C@@H](C)[C@@](O)(O2)C(=O)C(=O)N2CCCC[C@H]2C(=O)O[C@H]([C@H](C)C[C@@H]2CC[C@@H](OCCO)[C@H](OC)C2)CC(=O)[C@H](C)/C=C(\C)[C@@H](O)[C@@H](OC)C(=O)[C@H](C)C[C@H](C)/C=C/C=C/C=C/1C
REMARK SMILES IDX 17 1 18 2 19 3 20 4 21 5 22 6 15 7 16 8 13 9 14 10 10 11
REMARK SMILES IDX 5 12 6 13 12 14 7 15 8 16 9 17 4 18 3 19 2 20 1 21 67 22
REMARK SMILES IDX 66 23 68 24 65 25 64 26 63 27 62 28 60 29 61 30 59 31 57 32
REMARK SMILES IDX 58 33 11 35 23 37 24 38 25 39 26 40 27 41 28 42 29 43 30 44
REMARK SMILES IDX 31 45 41 46 32 47 38 48 33 49 39 50 40 51 34 52 35 53 36 54
REMARK SMILES IDX 37 55 42 57 43 58 44 59 45 60 46 61 47 62 48 63 49 64 50 65
REMARK SMILES IDX 51 66 52 68 53 69 54 70 55 71 56 72
REMARK H PARENT 11 36 37 56 51 67
REMARK Flexibility Score:  319.900
ROOT
ATOM      1  N   UNL     1      21.248   2.504  51.018  1.00  0.00    -0.322 N 
ATOM      2  C   UNL     1      21.563   1.163  50.532  1.00  0.00    +0.121 C 
ATOM      3  C   UNL     1      20.840   0.909  49.206  1.00  0.00    +0.022 C 
ATOM      4  C   UNL     1      21.129   2.019  48.187  1.00  0.00    +0.005 C 
ATOM      5  C   UNL     1      20.896   3.419  48.776  1.00  0.00    +0.037 C 
ATOM      6  C   UNL     1      21.661   3.579  50.097  1.00  0.00    +0.195 C 
ENDROOT
BRANCH   1   7
ATOM      7  C   UNL     1      20.123   2.736  51.817  1.00  0.00    +0.296 C 
ATOM      8  O   UNL     1      20.117   3.441  52.822  1.00  0.00    -0.265 OA
BRANCH   7   9
ATOM      9  C   UNL     1      18.812   2.058  51.484  1.00  0.00    +0.279 C 
ATOM     10  O   UNL     1      18.735   0.837  51.563  1.00  0.00    -0.282 OA
BRANCH   9  11
ATOM     11  C   UNL     1      17.700   3.037  51.048  1.00  0.00    +0.239 C 
ATOM     12  C   UNL     1      15.826   4.132  52.082  1.00  0.00    +0.125 C 
ATOM     13  C   UNL     1      15.266   4.260  50.654  1.00  0.00    +0.033 C 
ATOM     14  O   UNL     1      16.841   3.130  52.188  1.00  0.00    -0.340 OA
ATOM     15  C   UNL     1      15.413   2.955  49.882  1.00  0.00    +0.012 C 
ATOM     16  C   UNL     1      16.868   2.437  49.882  1.00  0.00    +0.054 C 
ATOM     17  C   UNL     1      17.529   2.670  48.519  1.00  0.00    +0.014 C 
BRANCH  12  18
ATOM     18  C   UNL     1      14.701   3.805  53.080  1.00  0.00    +0.068 C 
BRANCH  18  19
ATOM     19  C   UNL     1      13.533   2.965  52.526  1.00  0.00    +0.146 C 
BRANCH  19  20
ATOM     20  O   UNL     1      12.330   3.390  53.194  1.00  0.00    -0.377 OA
ATOM     21  C   UNL     1      12.582   4.191  54.340  1.00  0.00    +0.195 C 
ENDBRANCH  19  20
BRANCH  19  22
ATOM     22  C   UNL     1      13.569   1.450  52.670  1.00  0.00    -0.045 C 
ATOM     23  C   UNL     1      14.700   0.714  52.657  1.00  0.00    +0.002 C 
ATOM     24  C   UNL     1      12.192   0.842  52.813  1.00  0.00    +0.042 C 
BRANCH  23  25
ATOM     25  C   UNL     1      14.779  -0.724  52.775  1.00  0.00    +0.000 C 
ATOM     26  C   UNL     1      15.726  -1.466  52.182  1.00  0.00    -0.000 C 
BRANCH  26  27
ATOM     27  C   UNL     1      15.806  -2.896  52.355  1.00  0.00    -0.004 C 
ATOM     28  C   UNL     1      14.869  -3.623  52.979  1.00  0.00    -0.024 C 
BRANCH  28  29
ATOM     29  C   UNL     1      14.933  -5.131  53.087  1.00  0.00    +0.009 C 
ATOM     30  C   UNL     1      15.827  -5.525  54.263  1.00  0.00    +0.012 C 
BRANCH  29  31
ATOM     31  C   UNL     1      13.497  -5.677  53.233  1.00  0.00    +0.018 C 
BRANCH  31  32
ATOM     32  C   UNL     1      13.202  -6.970  52.454  1.00  0.00    +0.056 CG0
ATOM     33  C   UNL     1      13.166  -8.171  53.397  1.00  0.00    +0.016 C 
ATOM     34  G   UNL     1      11.952  -6.870  51.565  1.00  0.00    +0.000 G0
ENDBRANCH  31  32
ENDBRANCH  29  31
ENDBRANCH  28  29
ENDBRANCH  26  27
ENDBRANCH  23  25
ENDBRANCH  19  22
ENDBRANCH  18  19
ENDBRANCH  12  18
BRANCH  11  35
ATOM     35  O   UNL     1      18.186   4.320  50.681  1.00  0.00    -0.359 OA
ATOM     36  H   UNL     1      17.560   4.997  51.006  1.00  0.00    +0.214 HD
ENDBRANCH  11  35
ENDBRANCH   9  11
ENDBRANCH   7   9
ENDBRANCH   1   7
BRANCH   6  37
ATOM     37  C   UNL     1      21.707   5.004  50.698  1.00  0.00    +0.329 C 
ATOM     38  O   UNL     1      20.756   5.778  50.693  1.00  0.00    -0.250 OA
BRANCH  37  39
ATOM     39  O   UNL     1      22.917   5.279  51.263  1.00  0.00    -0.460 OA
BRANCH  39  40
ATOM     40  C   UNL     1      23.966   5.765  50.384  1.00  0.00    +0.186 C 
BRANCH  40  41
ATOM     41  C   UNL     1      25.186   4.799  50.529  1.00  0.00    +0.028 C 
ATOM     42  C   UNL     1      26.141   4.882  49.330  1.00  0.00    +0.011 C 
BRANCH  41  43
ATOM     43  C   UNL     1      24.748   3.314  50.680  1.00  0.00    +0.010 C 
BRANCH  43  44
ATOM     44  C   UNL     1      25.505   2.478  51.730  1.00  0.00    -0.008 C 
ATOM     45  C   UNL     1      26.576   1.576  51.107  1.00  0.00    +0.006 C 
ATOM     46  C   UNL     1      24.518   1.609  52.521  1.00  0.00    +0.038 C 
ATOM     47  C   UNL     1      27.296   0.752  52.167  1.00  0.00    +0.035 C 
ATOM     48  C   UNL     1      25.212   0.808  53.630  1.00  0.00    +0.147 C 
ATOM     49  C   UNL     1      26.349  -0.069  53.053  1.00  0.00    +0.147 C 
BRANCH  48  50
ATOM     50  O   UNL     1      24.174   0.019  54.239  1.00  0.00    -0.379 OA
ATOM     51  C   UNL     1      23.465  -0.807  53.325  1.00  0.00    +0.195 C 
ENDBRANCH  48  50
BRANCH  49  52
ATOM     52  O   UNL     1      27.117  -0.607  54.146  1.00  0.00    -0.373 OA
BRANCH  52  53
ATOM     53  C   UNL     1      28.289   0.164  54.447  1.00  0.00    +0.188 C 
BRANCH  53  54
ATOM     54  C   UNL     1      29.505  -0.692  54.106  1.00  0.00    +0.184 C 
BRANCH  54  55
ATOM     55  O   UNL     1      30.441   0.083  53.358  1.00  0.00    -0.394 OA
ATOM     56  H   UNL     1      29.986   0.931  53.190  1.00  0.00    +0.210 HD
ENDBRANCH  54  55
ENDBRANCH  53  54
ENDBRANCH  52  53
ENDBRANCH  49  52
ENDBRANCH  43  44
ENDBRANCH  41  43
ENDBRANCH  40  41
BRANCH  40  57
ATOM     57  C   UNL     1      24.258   7.213  50.808  1.00  0.00    +0.121 C 
BRANCH  57  58
ATOM     58  C   UNL     1      23.791   8.215  49.767  1.00  0.00    +0.143 C 
ATOM     59  O   UNL     1      22.603   8.543  49.708  1.00  0.00    -0.299 OA
BRANCH  58  60
ATOM     60  C   UNL     1      24.837   8.773  48.795  1.00  0.00    +0.076 C 
ATOM     61  C   UNL     1      24.800   8.007  47.471  1.00  0.00    +0.020 C 
BRANCH  60  62
ATOM     62  C   UNL     1      26.193   8.633  49.451  1.00  0.00    -0.014 C 
ATOM     63  C   UNL     1      27.277   9.431  49.337  1.00  0.00    -0.045 C 
ATOM     64  C   UNL     1      27.323  10.660  48.458  1.00  0.00    +0.042 C 
BRANCH  63  65
ATOM     65  C   UNL     1      28.579   9.205  50.102  1.00  0.00    +0.176 C 
BRANCH  65  66
ATOM     66  O   UNL     1      28.202   9.065  51.482  1.00  0.00    -0.386 OA
ATOM     67  H   UNL     1      27.754   8.195  51.521  1.00  0.00    +0.211 HD
ENDBRANCH  65  66
BRANCH  65  68
ATOM     68  C   UNL     1      29.524   8.029  49.738  1.00  0.00    +0.217 C 
BRANCH  68  69
ATOM     69  O   UNL     1      29.673   8.022  48.307  1.00  0.00    -0.371 OA
ATOM     70  C   UNL     1      29.487   6.737  47.729  1.00  0.00    +0.196 C 
ENDBRANCH  68  69
BRANCH  68  71
ATOM     71  C   UNL     1      30.832   8.075  50.566  1.00  0.00    +0.167 CG0
ATOM     72  O   UNL     1      31.115   9.055  51.265  1.00  0.00    -0.296 OA
ATOM     73  G   UNL     1      31.820   6.899  50.513  1.00  0.00    +0.000 G0
ENDBRANCH  68  71
ENDBRANCH  65  68
ENDBRANCH  63  65
ENDBRANCH  60  62
ENDBRANCH  58  60
ENDBRANCH  57  58
ENDBRANCH  40  57
ENDBRANCH  39  40
ENDBRANCH  37  39
ENDBRANCH   6  37
TORSDOF 12
                                                                                                                                                        
ENDMDL
MODEL 7
REMARK VINA RESULT:    -7.169      2.503      4.115
REMARK INTER + INTRA:         -24.550
REMARK INTER:                 -19.910
REMARK INTRA:                  -4.640
REMARK UNBOUND:                -4.180
REMARK SMILES CO[C@H]1C[C@@H]2CC[C@@H](C)[C@@](O)(O2)C(=O)C(=O)N2CCCC[C@H]2C(=O)O[C@H]([C@H](C)C[C@@H]2CC[C@@H](OCCO)[C@H](OC)C2)CC(=O)[C@H](C)/C=C(\C)[C@@H](O)[C@@H](OC)C(=O)[C@H](C)C[C@H](C)/C=C/C=C/C=C/1C
REMARK SMILES IDX 17 1 18 2 19 3 20 4 21 5 22 6 15 7 16 8 13 9 14 10 10 11
REMARK SMILES IDX 5 12 6 13 12 14 7 15 8 16 9 17 4 18 3 19 2 20 1 21 67 22
REMARK SMILES IDX 66 23 68 24 65 25 64 26 63 27 62 28 60 29 61 30 59 31 57 32
REMARK SMILES IDX 58 33 11 35 23 37 24 38 25 39 26 40 27 41 28 42 29 43 30 44
REMARK SMILES IDX 31 45 41 46 32 47 38 48 33 49 39 50 40 51 34 52 35 53 36 54
REMARK SMILES IDX 37 55 42 57 43 58 44 59 45 60 46 61 47 62 48 63 49 64 50 65
REMARK SMILES IDX 51 66 52 68 53 69 54 70 55 71 56 72
REMARK H PARENT 11 36 37 56 51 67
REMARK Flexibility Score:  319.900
ROOT
ATOM      1  N   UNL     1      20.038   3.558  48.019  1.00  0.00    -0.322 N 
ATOM      2  C   UNL     1      20.784   3.863  46.802  1.00  0.00    +0.121 C 
ATOM      3  C   UNL     1      22.284   3.683  47.054  1.00  0.00    +0.022 C 
ATOM      4  C   UNL     1      22.593   2.297  47.637  1.00  0.00    +0.005 C 
ATOM      5  C   UNL     1      21.704   1.968  48.846  1.00  0.00    +0.037 C 
ATOM      6  C   UNL     1      20.224   2.175  48.495  1.00  0.00    +0.195 C 
ENDROOT
BRANCH   1   7
ATOM      7  C   UNL     1      19.790   4.544  48.981  1.00  0.00    +0.296 C 
ATOM      8  O   UNL     1      20.060   4.436  50.173  1.00  0.00    -0.265 OA
BRANCH   7   9
ATOM      9  C   UNL     1      19.105   5.832  48.577  1.00  0.00    +0.279 C 
ATOM     10  O   UNL     1      17.891   5.835  48.411  1.00  0.00    -0.282 OA
BRANCH   9  11
ATOM     11  C   UNL     1      20.075   7.021  48.399  1.00  0.00    +0.239 C 
ATOM     12  C   UNL     1      22.396   7.469  48.838  1.00  0.00    +0.125 C 
ATOM     13  C   UNL     1      21.988   8.953  48.827  1.00  0.00    +0.033 C 
ATOM     14  O   UNL     1      21.283   6.593  49.035  1.00  0.00    -0.340 OA
ATOM     15  C   UNL     1      20.714   9.183  49.628  1.00  0.00    +0.012 C 
ATOM     16  C   UNL     1      19.559   8.268  49.165  1.00  0.00    +0.054 C 
ATOM     17  C   UNL     1      18.528   9.062  48.354  1.00  0.00    +0.014 C 
BRANCH  12  18
ATOM     18  C   UNL     1      23.439   7.200  49.938  1.00  0.00    +0.068 C 
BRANCH  18  19
ATOM     19  C   UNL     1      23.927   5.743  50.062  1.00  0.00    +0.146 C 
BRANCH  19  20
ATOM     20  O   UNL     1      23.993   5.418  51.463  1.00  0.00    -0.377 OA
ATOM     21  C   UNL     1      22.713   5.317  52.072  1.00  0.00    +0.195 C 
ENDBRANCH  19  20
BRANCH  19  22
ATOM     22  C   UNL     1      25.283   5.359  49.487  1.00  0.00    -0.045 C 
ATOM     23  C   UNL     1      26.197   6.246  49.044  1.00  0.00    +0.002 C 
ATOM     24  C   UNL     1      25.499   3.862  49.443  1.00  0.00    +0.042 C 
BRANCH  23  25
ATOM     25  C   UNL     1      27.488   5.925  48.478  1.00  0.00    +0.000 C 
ATOM     26  C   UNL     1      28.328   6.844  47.977  1.00  0.00    -0.000 C 
BRANCH  26  27
ATOM     27  C   UNL     1      29.629   6.499  47.460  1.00  0.00    -0.004 C 
ATOM     28  C   UNL     1      30.501   5.711  48.107  1.00  0.00    -0.024 C 
BRANCH  28  29
ATOM     29  C   UNL     1      31.833   5.299  47.517  1.00  0.00    +0.009 C 
ATOM     30  C   UNL     1      32.930   5.452  48.570  1.00  0.00    +0.012 C 
BRANCH  29  31
ATOM     31  C   UNL     1      31.715   3.852  46.996  1.00  0.00    +0.018 C 
BRANCH  31  32
ATOM     32  C   UNL     1      33.002   3.014  47.083  1.00  0.00    +0.056 CG0
ATOM     33  C   UNL     1      32.683   1.524  46.982  1.00  0.00    +0.016 C 
ATOM     34  G   UNL     1      34.085   3.462  46.088  1.00  0.00    +0.000 G0
ENDBRANCH  31  32
ENDBRANCH  29  31
ENDBRANCH  28  29
ENDBRANCH  26  27
ENDBRANCH  23  25
ENDBRANCH  19  22
ENDBRANCH  18  19
ENDBRANCH  12  18
BRANCH  11  35
ATOM     35  O   UNL     1      20.317   7.358  47.040  1.00  0.00    -0.359 OA
ATOM     36  H   UNL     1      20.302   6.539  46.506  1.00  0.00    +0.214 HD
ENDBRANCH  11  35
ENDBRANCH   9  11
ENDBRANCH   7   9
ENDBRANCH   1   7
BRANCH   6  37
ATOM     37  C   UNL     1      19.194   1.674  49.535  1.00  0.00    +0.329 C 
ATOM     38  O   UNL     1      18.021   2.031  49.563  1.00  0.00    -0.250 OA
BRANCH  37  39
ATOM     39  O   UNL     1      19.739   0.762  50.391  1.00  0.00    -0.460 OA
BRANCH  39  40
ATOM     40  C   UNL     1      19.192   0.702  51.735  1.00  0.00    +0.186 C 
BRANCH  40  41
ATOM     41  C   UNL     1      20.361   0.991  52.731  1.00  0.00    +0.028 C 
ATOM     42  C   UNL     1      20.560   2.493  52.977  1.00  0.00    +0.011 C 
BRANCH  41  43
ATOM     43  C   UNL     1      21.717   0.412  52.234  1.00  0.00    +0.010 C 
BRANCH  43  44
ATOM     44  C   UNL     1      22.983   0.910  52.957  1.00  0.00    -0.008 C 
ATOM     45  C   UNL     1      23.752   1.959  52.147  1.00  0.00    +0.006 C 
ATOM     46  C   UNL     1      23.916  -0.271  53.257  1.00  0.00    +0.038 C 
ATOM     47  C   UNL     1      25.005   2.421  52.881  1.00  0.00    +0.035 C 
ATOM     48  C   UNL     1      25.161   0.159  54.041  1.00  0.00    +0.147 C 
ATOM     49  C   UNL     1      25.934   1.270  53.290  1.00  0.00    +0.147 C 
BRANCH  48  50
ATOM     50  O   UNL     1      25.947  -1.036  54.199  1.00  0.00    -0.379 OA
ATOM     51  C   UNL     1      26.475  -1.545  52.982  1.00  0.00    +0.195 C 
ENDBRANCH  48  50
BRANCH  49  52
ATOM     52  O   UNL     1      26.944   1.804  54.167  1.00  0.00    -0.373 OA
BRANCH  52  53
ATOM     53  C   UNL     1      28.229   1.922  53.542  1.00  0.00    +0.188 C 
BRANCH  53  54
ATOM     54  C   UNL     1      29.068   0.725  53.980  1.00  0.00    +0.184 C 
BRANCH  54  55
ATOM     55  O   UNL     1      28.587   0.239  55.234  1.00  0.00    -0.394 OA
ATOM     56  H   UNL     1      27.815  -0.315  55.008  1.00  0.00    +0.210 HD
ENDBRANCH  54  55
ENDBRANCH  53  54
ENDBRANCH  52  53
ENDBRANCH  49  52
ENDBRANCH  43  44
ENDBRANCH  41  43
ENDBRANCH  40  41
BRANCH  40  57
ATOM     57  C   UNL     1      18.564  -0.691  51.893  1.00  0.00    +0.121 C 
BRANCH  57  58
ATOM     58  C   UNL     1      17.199  -0.627  52.556  1.00  0.00    +0.143 C 
ATOM     59  O   UNL     1      17.061  -0.974  53.731  1.00  0.00    -0.299 OA
BRANCH  58  60
ATOM     60  C   UNL     1      16.017  -0.141  51.709  1.00  0.00    +0.076 C 
ATOM     61  C   UNL     1      15.457   1.167  52.272  1.00  0.00    +0.020 C 
BRANCH  60  62
ATOM     62  C   UNL     1      14.961  -1.223  51.730  1.00  0.00    -0.014 C 
ATOM     63  C   UNL     1      14.542  -2.019  50.722  1.00  0.00    -0.045 C 
ATOM     64  C   UNL     1      15.076  -1.936  49.312  1.00  0.00    +0.042 C 
BRANCH  63  65
ATOM     65  C   UNL     1      13.496  -3.119  50.891  1.00  0.00    +0.176 C 
BRANCH  65  66
ATOM     66  O   UNL     1      13.336  -3.710  49.590  1.00  0.00    -0.386 OA
ATOM     67  H   UNL     1      12.568  -3.240  49.206  1.00  0.00    +0.211 HD
ENDBRANCH  65  66
BRANCH  65  68
ATOM     68  C   UNL     1      13.701  -4.264  51.919  1.00  0.00    +0.217 C 
BRANCH  68  69
ATOM     69  O   UNL     1      13.362  -3.744  53.217  1.00  0.00    -0.371 OA
ATOM     70  C   UNL     1      12.042  -4.076  53.627  1.00  0.00    +0.196 C 
ENDBRANCH  68  69
BRANCH  68  71
ATOM     71  C   UNL     1      12.970  -5.557  51.483  1.00  0.00    +0.167 CG0
ATOM     72  O   UNL     1      13.432  -6.674  51.742  1.00  0.00    -0.296 OA
ATOM     73  G   UNL     1      11.656  -5.470  50.690  1.00  0.00    +0.000 G0
ENDBRANCH  68  71
ENDBRANCH  65  68
ENDBRANCH  63  65
ENDBRANCH  60  62
ENDBRANCH  58  60
ENDBRANCH  57  58
ENDBRANCH  40  57
ENDBRANCH  39  40
ENDBRANCH  37  39
ENDBRANCH   6  37
TORSDOF 12
                                                                                                                                                        
ENDMDL
MODEL 8
REMARK VINA RESULT:    -7.144      1.990      3.216
REMARK INTER + INTRA:         -24.479
REMARK INTER:                 -18.912
REMARK INTRA:                  -5.567
REMARK UNBOUND:                -4.180
REMARK SMILES CO[C@H]1C[C@@H]2CC[C@@H](C)[C@@](O)(O2)C(=O)C(=O)N2CCCC[C@H]2C(=O)O[C@H]([C@H](C)C[C@@H]2CC[C@@H](OCCO)[C@H](OC)C2)CC(=O)[C@H](C)/C=C(\C)[C@@H](O)[C@@H](OC)C(=O)[C@H](C)C[C@H](C)/C=C/C=C/C=C/1C
REMARK SMILES IDX 17 1 18 2 19 3 20 4 21 5 22 6 15 7 16 8 13 9 14 10 10 11
REMARK SMILES IDX 5 12 6 13 12 14 7 15 8 16 9 17 4 18 3 19 2 20 1 21 67 22
REMARK SMILES IDX 66 23 68 24 65 25 64 26 63 27 62 28 60 29 61 30 59 31 57 32
REMARK SMILES IDX 58 33 11 35 23 37 24 38 25 39 26 40 27 41 28 42 29 43 30 44
REMARK SMILES IDX 31 45 41 46 32 47 38 48 33 49 39 50 40 51 34 52 35 53 36 54
REMARK SMILES IDX 37 55 42 57 43 58 44 59 45 60 46 61 47 62 48 63 49 64 50 65
REMARK SMILES IDX 51 66 52 68 53 69 54 70 55 71 56 72
REMARK H PARENT 11 36 37 56 51 67
REMARK Flexibility Score:  319.900
ROOT
ATOM      1  N   UNL     1      20.066   3.766  47.851  1.00  0.00    -0.322 N 
ATOM      2  C   UNL     1      20.962   4.068  46.738  1.00  0.00    +0.121 C 
ATOM      3  C   UNL     1      22.414   3.822  47.159  1.00  0.00    +0.022 C 
ATOM      4  C   UNL     1      22.600   2.412  47.736  1.00  0.00    +0.005 C 
ATOM      5  C   UNL     1      21.563   2.092  48.824  1.00  0.00    +0.037 C 
ATOM      6  C   UNL     1      20.143   2.367  48.309  1.00  0.00    +0.195 C 
ENDROOT
BRANCH   1   7
ATOM      7  C   UNL     1      19.745   4.740  48.803  1.00  0.00    +0.296 C 
ATOM      8  O   UNL     1      19.910   4.612  50.013  1.00  0.00    -0.265 OA
BRANCH   7   9
ATOM      9  C   UNL     1      19.106   6.039  48.362  1.00  0.00    +0.279 C 
ATOM     10  O   UNL     1      17.907   6.058  48.107  1.00  0.00    -0.282 OA
BRANCH   9  11
ATOM     11  C   UNL     1      20.100   7.218  48.268  1.00  0.00    +0.239 C 
ATOM     12  C   UNL     1      22.410   7.609  48.807  1.00  0.00    +0.125 C 
ATOM     13  C   UNL     1      22.026   9.099  48.844  1.00  0.00    +0.033 C 
ATOM     14  O   UNL     1      21.277   6.744  48.928  1.00  0.00    -0.340 OA
ATOM     15  C   UNL     1      20.726   9.317  49.608  1.00  0.00    +0.012 C 
ATOM     16  C   UNL     1      19.575   8.442  49.066  1.00  0.00    +0.054 C 
ATOM     17  C   UNL     1      18.587   9.285  48.253  1.00  0.00    +0.014 C 
BRANCH  12  18
ATOM     18  C   UNL     1      23.408   7.278  49.932  1.00  0.00    +0.068 C 
BRANCH  18  19
ATOM     19  C   UNL     1      24.009   5.859  49.903  1.00  0.00    +0.146 C 
BRANCH  19  20
ATOM     20  O   UNL     1      24.135   5.406  51.264  1.00  0.00    -0.377 OA
ATOM     21  C   UNL     1      22.882   5.172  51.892  1.00  0.00    +0.195 C 
ENDBRANCH  19  20
BRANCH  19  22
ATOM     22  C   UNL     1      25.375   5.640  49.269  1.00  0.00    -0.045 C 
ATOM     23  C   UNL     1      26.068   6.593  48.613  1.00  0.00    +0.002 C 
ATOM     24  C   UNL     1      25.877   4.222  49.434  1.00  0.00    +0.042 C 
BRANCH  23  25
ATOM     25  C   UNL     1      27.358   6.424  47.984  1.00  0.00    +0.000 C 
ATOM     26  C   UNL     1      28.520   6.738  48.578  1.00  0.00    -0.000 C 
BRANCH  26  27
ATOM     27  C   UNL     1      29.795   6.516  47.943  1.00  0.00    -0.004 C 
ATOM     28  C   UNL     1      30.619   5.507  48.261  1.00  0.00    -0.024 C 
BRANCH  28  29
ATOM     29  C   UNL     1      31.921   5.245  47.535  1.00  0.00    +0.009 C 
ATOM     30  C   UNL     1      31.925   3.820  46.983  1.00  0.00    +0.012 C 
BRANCH  29  31
ATOM     31  C   UNL     1      32.088   6.305  46.426  1.00  0.00    +0.018 C 
BRANCH  31  32
ATOM     32  C   UNL     1      32.746   5.804  45.129  1.00  0.00    +0.056 CG0
ATOM     33  C   UNL     1      32.584   6.831  44.011  1.00  0.00    +0.016 C 
ATOM     34  G   UNL     1      34.203   5.355  45.323  1.00  0.00    +0.000 G0
ENDBRANCH  31  32
ENDBRANCH  29  31
ENDBRANCH  28  29
ENDBRANCH  26  27
ENDBRANCH  23  25
ENDBRANCH  19  22
ENDBRANCH  18  19
ENDBRANCH  12  18
BRANCH  11  35
ATOM     35  O   UNL     1      20.396   7.606  46.934  1.00  0.00    -0.359 OA
ATOM     36  H   UNL     1      19.579   7.944  46.517  1.00  0.00    +0.214 HD
ENDBRANCH  11  35
ENDBRANCH   9  11
ENDBRANCH   7   9
ENDBRANCH   1   7
BRANCH   6  37
ATOM     37  C   UNL     1      18.980   1.884  49.208  1.00  0.00    +0.329 C 
ATOM     38  O   UNL     1      17.827   2.289  49.109  1.00  0.00    -0.250 OA
BRANCH  37  39
ATOM     39  O   UNL     1      19.385   0.931  50.095  1.00  0.00    -0.460 OA
BRANCH  39  40
ATOM     40  C   UNL     1      18.824   0.987  51.433  1.00  0.00    +0.186 C 
BRANCH  40  41
ATOM     41  C   UNL     1      20.012   1.157  52.434  1.00  0.00    +0.028 C 
ATOM     42  C   UNL     1      20.362   2.632  52.678  1.00  0.00    +0.011 C 
BRANCH  41  43
ATOM     43  C   UNL     1      21.303   0.441  51.944  1.00  0.00    +0.010 C 
BRANCH  43  44
ATOM     44  C   UNL     1      22.628   0.896  52.588  1.00  0.00    -0.008 C 
ATOM     45  C   UNL     1      23.627   1.442  51.561  1.00  0.00    +0.006 C 
ATOM     46  C   UNL     1      23.275  -0.272  53.343  1.00  0.00    +0.038 C 
ATOM     47  C   UNL     1      24.929   1.870  52.226  1.00  0.00    +0.035 C 
ATOM     48  C   UNL     1      24.562   0.145  54.063  1.00  0.00    +0.147 C 
ATOM     49  C   UNL     1      25.576   0.766  53.073  1.00  0.00    +0.147 C 
BRANCH  48  50
ATOM     50  O   UNL     1      25.066  -1.056  54.674  1.00  0.00    -0.379 OA
ATOM     51  C   UNL     1      24.375  -1.436  55.856  1.00  0.00    +0.195 C 
ENDBRANCH  48  50
BRANCH  49  52
ATOM     52  O   UNL     1      26.654   1.356  53.824  1.00  0.00    -0.373 OA
BRANCH  52  53
ATOM     53  C   UNL     1      27.951   0.945  53.371  1.00  0.00    +0.188 C 
BRANCH  53  54
ATOM     54  C   UNL     1      28.623   0.193  54.516  1.00  0.00    +0.184 C 
BRANCH  54  55
ATOM     55  O   UNL     1      27.714   0.077  55.610  1.00  0.00    -0.394 OA
ATOM     56  H   UNL     1      26.919   0.569  55.328  1.00  0.00    +0.210 HD
ENDBRANCH  54  55
ENDBRANCH  53  54
ENDBRANCH  52  53
ENDBRANCH  49  52
ENDBRANCH  43  44
ENDBRANCH  41  43
ENDBRANCH  40  41
BRANCH  40  57
ATOM     57  C   UNL     1      18.021  -0.309  51.627  1.00  0.00    +0.121 C 
BRANCH  57  58
ATOM     58  C   UNL     1      16.535  -0.097  51.391  1.00  0.00    +0.143 C 
ATOM     59  O   UNL     1      15.940  -0.758  50.537  1.00  0.00    -0.299 OA
BRANCH  58  60
ATOM     60  C   UNL     1      15.827   0.972  52.230  1.00  0.00    +0.076 C 
ATOM     61  C   UNL     1      14.515   0.424  52.797  1.00  0.00    +0.020 C 
BRANCH  60  62
ATOM     62  C   UNL     1      15.561   2.160  51.332  1.00  0.00    -0.014 C 
ATOM     63  C   UNL     1      15.250   3.429  51.673  1.00  0.00    -0.045 C 
ATOM     64  C   UNL     1      15.081   3.895  53.101  1.00  0.00    +0.042 C 
BRANCH  63  65
ATOM     65  C   UNL     1      15.059   4.556  50.661  1.00  0.00    +0.176 C 
BRANCH  65  66
ATOM     66  O   UNL     1      16.258   4.577  49.867  1.00  0.00    -0.386 OA
ATOM     67  H   UNL     1      16.669   3.703  50.032  1.00  0.00    +0.211 HD
ENDBRANCH  65  66
BRANCH  65  68
ATOM     68  C   UNL     1      13.842   4.563  49.696  1.00  0.00    +0.217 C 
BRANCH  68  69
ATOM     69  O   UNL     1      13.850   3.314  48.982  1.00  0.00    -0.371 OA
ATOM     70  C   UNL     1      13.795   3.474  47.571  1.00  0.00    +0.196 C 
ENDBRANCH  68  69
BRANCH  68  71
ATOM     71  C   UNL     1      12.532   4.923  50.439  1.00  0.00    +0.167 CG0
ATOM     72  O   UNL     1      11.710   5.706  49.947  1.00  0.00    -0.296 OA
ATOM     73  G   UNL     1      12.240   4.325  51.824  1.00  0.00    +0.000 G0
ENDBRANCH  68  71
ENDBRANCH  65  68
ENDBRANCH  63  65
ENDBRANCH  60  62
ENDBRANCH  58  60
ENDBRANCH  57  58
ENDBRANCH  40  57
ENDBRANCH  39  40
ENDBRANCH  37  39
ENDBRANCH   6  37
TORSDOF 12
                                                                                                                                                        
ENDMDL
MODEL 9
REMARK VINA RESULT:    -6.975      3.167     11.958
REMARK INTER + INTRA:         -24.001
REMARK INTER:                 -19.369
REMARK INTRA:                  -4.631
REMARK UNBOUND:                -4.180
REMARK SMILES CO[C@H]1C[C@@H]2CC[C@@H](C)[C@@](O)(O2)C(=O)C(=O)N2CCCC[C@H]2C(=O)O[C@H]([C@H](C)C[C@@H]2CC[C@@H](OCCO)[C@H](OC)C2)CC(=O)[C@H](C)/C=C(\C)[C@@H](O)[C@@H](OC)C(=O)[C@H](C)C[C@H](C)/C=C/C=C/C=C/1C
REMARK SMILES IDX 17 1 18 2 19 3 20 4 21 5 22 6 15 7 16 8 13 9 14 10 10 11
REMARK SMILES IDX 5 12 6 13 12 14 7 15 8 16 9 17 4 18 3 19 2 20 1 21 67 22
REMARK SMILES IDX 66 23 68 24 65 25 64 26 63 27 62 28 60 29 61 30 59 31 57 32
REMARK SMILES IDX 58 33 11 35 23 37 24 38 25 39 26 40 27 41 28 42 29 43 30 44
REMARK SMILES IDX 31 45 41 46 32 47 38 48 33 49 39 50 40 51 34 52 35 53 36 54
REMARK SMILES IDX 37 55 42 57 43 58 44 59 45 60 46 61 47 62 48 63 49 64 50 65
REMARK SMILES IDX 51 66 52 68 53 69 54 70 55 71 56 72
REMARK H PARENT 11 36 37 56 51 67
REMARK Flexibility Score:  319.900
ROOT
ATOM      1  N   UNL     1      20.292   7.142  47.996  1.00  0.00    -0.322 N 
ATOM      2  C   UNL     1      19.223   8.069  47.631  1.00  0.00    +0.121 C 
ATOM      3  C   UNL     1      18.881   8.961  48.827  1.00  0.00    +0.022 C 
ATOM      4  C   UNL     1      20.131   9.652  49.389  1.00  0.00    +0.005 C 
ATOM      5  C   UNL     1      21.273   8.657  49.649  1.00  0.00    +0.037 C 
ATOM      6  C   UNL     1      21.543   7.812  48.396  1.00  0.00    +0.195 C 
ENDROOT
BRANCH   1   7
ATOM      7  C   UNL     1      20.006   5.905  48.582  1.00  0.00    +0.296 C 
ATOM      8  O   UNL     1      20.337   5.580  49.719  1.00  0.00    -0.265 OA
BRANCH   7   9
ATOM      9  C   UNL     1      19.280   4.844  47.782  1.00  0.00    +0.279 C 
ATOM     10  O   UNL     1      18.139   5.067  47.395  1.00  0.00    -0.282 OA
BRANCH   9  11
ATOM     11  C   UNL     1      20.104   3.556  47.569  1.00  0.00    +0.239 C 
ATOM     12  C   UNL     1      20.666   1.602  48.853  1.00  0.00    +0.125 C 
ATOM     13  C   UNL     1      21.863   1.463  47.895  1.00  0.00    +0.033 C 
ATOM     14  O   UNL     1      20.108   2.920  48.850  1.00  0.00    -0.340 OA
ATOM     15  C   UNL     1      22.557   2.801  47.678  1.00  0.00    +0.012 C 
ATOM     16  C   UNL     1      21.576   3.900  47.213  1.00  0.00    +0.054 C 
ATOM     17  C   UNL     1      21.758   4.196  45.720  1.00  0.00    +0.014 C 
BRANCH  12  18
ATOM     18  C   UNL     1      21.077   1.243  50.292  1.00  0.00    +0.068 C 
BRANCH  18  19
ATOM     19  C   UNL     1      20.006   1.473  51.376  1.00  0.00    +0.146 C 
BRANCH  19  20
ATOM     20  O   UNL     1      20.686   1.723  52.621  1.00  0.00    -0.377 OA
ATOM     21  C   UNL     1      20.783   3.105  52.935  1.00  0.00    +0.195 C 
ENDBRANCH  19  20
BRANCH  19  22
ATOM     22  C   UNL     1      18.996   0.374  51.673  1.00  0.00    -0.045 C 
ATOM     23  C   UNL     1      17.938   0.084  50.888  1.00  0.00    +0.002 C 
ATOM     24  C   UNL     1      19.289  -0.358  52.964  1.00  0.00    +0.042 C 
BRANCH  23  25
ATOM     25  C   UNL     1      16.948  -0.939  51.139  1.00  0.00    +0.000 C 
ATOM     26  C   UNL     1      15.690  -0.675  51.525  1.00  0.00    -0.000 C 
BRANCH  26  27
ATOM     27  C   UNL     1      14.711  -1.715  51.724  1.00  0.00    -0.004 C 
ATOM     28  C   UNL     1      14.857  -2.714  52.606  1.00  0.00    -0.024 C 
BRANCH  28  29
ATOM     29  C   UNL     1      13.787  -3.755  52.855  1.00  0.00    +0.009 C 
ATOM     30  C   UNL     1      12.515  -3.377  52.098  1.00  0.00    +0.012 C 
BRANCH  29  31
ATOM     31  C   UNL     1      14.334  -5.135  52.434  1.00  0.00    +0.018 C 
BRANCH  31  32
ATOM     32  C   UNL     1      14.326  -6.211  53.532  1.00  0.00    +0.056 CG0
ATOM     33  C   UNL     1      15.084  -5.727  54.767  1.00  0.00    +0.016 C 
ATOM     34  G   UNL     1      12.918  -6.731  53.861  1.00  0.00    +0.000 G0
ENDBRANCH  31  32
ENDBRANCH  29  31
ENDBRANCH  28  29
ENDBRANCH  26  27
ENDBRANCH  23  25
ENDBRANCH  19  22
ENDBRANCH  18  19
ENDBRANCH  12  18
BRANCH  11  35
ATOM     35  O   UNL     1      19.561   2.691  46.581  1.00  0.00    -0.359 OA
ATOM     36  H   UNL     1      19.480   3.186  45.742  1.00  0.00    +0.214 HD
ENDBRANCH  11  35
ENDBRANCH   9  11
ENDBRANCH   7   9
ENDBRANCH   1   7
BRANCH   6  37
ATOM     37  C   UNL     1      22.807   6.921  48.427  1.00  0.00    +0.329 C 
ATOM     38  O   UNL     1      23.424   6.573  47.426  1.00  0.00    -0.250 OA
BRANCH  37  39
ATOM     39  O   UNL     1      23.172   6.601  49.702  1.00  0.00    -0.460 OA
BRANCH  39  40
ATOM     40  C   UNL     1      24.101   5.498  49.871  1.00  0.00    +0.186 C 
BRANCH  40  41
ATOM     41  C   UNL     1      23.505   4.542  50.954  1.00  0.00    +0.028 C 
ATOM     42  C   UNL     1      23.945   4.924  52.375  1.00  0.00    +0.011 C 
BRANCH  41  43
ATOM     43  C   UNL     1      23.908   3.058  50.719  1.00  0.00    +0.010 C 
BRANCH  43  44
ATOM     44  C   UNL     1      24.865   2.434  51.753  1.00  0.00    -0.008 C 
ATOM     45  C   UNL     1      26.204   2.009  51.139  1.00  0.00    +0.006 C 
ATOM     46  C   UNL     1      24.207   1.214  52.409  1.00  0.00    +0.038 C 
ATOM     47  C   UNL     1      27.121   1.384  52.182  1.00  0.00    +0.035 C 
ATOM     48  C   UNL     1      25.090   0.596  53.500  1.00  0.00    +0.147 C 
ATOM     49  C   UNL     1      26.480   0.213  52.939  1.00  0.00    +0.147 C 
BRANCH  48  50
ATOM     50  O   UNL     1      24.363  -0.551  53.978  1.00  0.00    -0.379 OA
ATOM     51  C   UNL     1      23.098  -0.733  53.356  1.00  0.00    +0.195 C 
ENDBRANCH  48  50
BRANCH  49  52
ATOM     52  O   UNL     1      27.344  -0.132  54.038  1.00  0.00    -0.373 OA
BRANCH  52  53
ATOM     53  C   UNL     1      28.471  -0.926  53.644  1.00  0.00    +0.188 C 
BRANCH  53  54
ATOM     54  C   UNL     1      27.941  -2.133  52.877  1.00  0.00    +0.184 C 
BRANCH  54  55
ATOM     55  O   UNL     1      28.577  -3.320  53.354  1.00  0.00    -0.394 OA
ATOM     56  H   UNL     1      28.613  -3.211  54.324  1.00  0.00    +0.210 HD
ENDBRANCH  54  55
ENDBRANCH  53  54
ENDBRANCH  52  53
ENDBRANCH  49  52
ENDBRANCH  43  44
ENDBRANCH  41  43
ENDBRANCH  40  41
BRANCH  40  57
ATOM     57  C   UNL     1      25.454   6.117  50.257  1.00  0.00    +0.121 C 
BRANCH  57  58
ATOM     58  C   UNL     1      26.535   5.800  49.237  1.00  0.00    +0.143 C 
ATOM     59  O   UNL     1      26.689   4.645  48.833  1.00  0.00    -0.299 OA
BRANCH  58  60
ATOM     60  C   UNL     1      27.423   6.954  48.760  1.00  0.00    +0.076 C 
ATOM     61  C   UNL     1      26.875   7.549  47.461  1.00  0.00    +0.020 C 
BRANCH  60  62
ATOM     62  C   UNL     1      28.815   6.402  48.545  1.00  0.00    -0.014 C 
ATOM     63  C   UNL     1      30.007   7.007  48.743  1.00  0.00    -0.045 C 
ATOM     64  C   UNL     1      30.153   8.433  49.219  1.00  0.00    +0.042 C 
BRANCH  63  65
ATOM     65  C   UNL     1      31.352   6.314  48.537  1.00  0.00    +0.176 C 
BRANCH  65  66
ATOM     66  O   UNL     1      31.440   5.316  49.568  1.00  0.00    -0.386 OA
ATOM     67  H   UNL     1      32.256   4.819  49.351  1.00  0.00    +0.211 HD
ENDBRANCH  65  66
BRANCH  65  68
ATOM     68  C   UNL     1      31.704   5.642  47.183  1.00  0.00    +0.217 C 
BRANCH  68  69
ATOM     69  O   UNL     1      32.783   6.392  46.597  1.00  0.00    -0.371 OA
ATOM     70  C   UNL     1      32.421   7.046  45.388  1.00  0.00    +0.196 C 
ENDBRANCH  68  69
BRANCH  68  71
ATOM     71  C   UNL     1      31.933   4.120  47.348  1.00  0.00    +0.167 CG0
ATOM     72  O   UNL     1      32.271   3.414  46.390  1.00  0.00    -0.296 OA
ATOM     73  G   UNL     1      31.718   3.451  48.715  1.00  0.00    +0.000 G0
ENDBRANCH  68  71
ENDBRANCH  65  68
ENDBRANCH  63  65
ENDBRANCH  60  62
ENDBRANCH  58  60
ENDBRANCH  57  58
ENDBRANCH  40  57
ENDBRANCH  39  40
ENDBRANCH  37  39
ENDBRANCH   6  37
TORSDOF 12
                                                                                                                                                        
ENDMDL
