REMARK SMILES COc1cc2nccc(Oc3ccc(NC(=O)NC4CC4)c(Cl)c3)c2cc1C(N)=O
REMARK SMILES IDX 10 1 9 2 3 3 4 4 27 5 5 6 26 7 6 8 25 9 7 10 8 11 2 12 1 13
REMARK SMILES IDX 28 14 30 15 29 16 11 19 12 20 24 21 13 22 22 23 14 24 23 25
REMARK SMILES IDX 15 26 16 27 17 28 18 29 19 32 20 33 21 34
REMARK H PARENT 29 17 29 18 15 30 18 31
ROOT
ATOM      1  O   UNL     1      -1.171  -0.402  -1.484  1.00  0.00    -0.457 OA
ENDROOT
BRANCH   1   2
ATOM      2  C   UNL     1      -1.996  -1.333  -0.887  1.00  0.00    +0.138 A 
ATOM      3  C   UNL     1      -5.716  -0.194   0.711  1.00  0.00    +0.133 A 
ATOM      4  C   UNL     1      -5.277  -1.522   0.747  1.00  0.00    +0.076 A 
ATOM      5  C   UNL     1      -4.902   0.795   0.162  1.00  0.00    +0.082 A 
ATOM      6  C   UNL     1      -4.054  -1.900   0.211  1.00  0.00    +0.078 A 
ATOM      7  C   UNL     1      -3.665   0.436  -0.383  1.00  0.00    +0.032 A 
ATOM      8  N   UNL     1      -3.699  -3.195   0.260  1.00  0.00    -0.256 NA
ATOM      9  C   UNL     1      -3.232  -0.909  -0.363  1.00  0.00    +0.044 A 
ATOM     10  C   UNL     1      -2.516  -3.561  -0.281  1.00  0.00    +0.115 A 
ATOM     11  C   UNL     1      -1.638  -2.678  -0.870  1.00  0.00    +0.068 A 
BRANCH   3  12
ATOM     12  O   UNL     1      -6.898   0.122   1.326  1.00  0.00    -0.496 OA
ATOM     13  C   UNL     1      -8.004  -0.195   0.478  1.00  0.00    +0.278 C 
ENDBRANCH   3  12
BRANCH   5  14
ATOM     14  C   UNL     1      -5.338   2.211   0.108  1.00  0.00    +0.252 C 
ATOM     15  O   UNL     1      -6.460   2.541  -0.247  1.00  0.00    -0.269 OA
ATOM     16  N   UNL     1      -4.402   3.141   0.470  1.00  0.00    -0.365 N 
ATOM     17  H   UNL     1      -4.736   4.093   0.557  1.00  0.00    +0.159 HD
ATOM     18  H   UNL     1      -3.573   2.887   0.988  1.00  0.00    +0.159 HD
ENDBRANCH   5  14
ENDBRANCH   1   2
BRANCH   1  19
ATOM     19  C   UNL     1       0.115  -0.303  -1.002  1.00  0.00    +0.129 A 
ATOM     20  C   UNL     1       1.123  -0.107  -1.945  1.00  0.00    +0.049 A 
ATOM     21  C   UNL     1       0.426  -0.320   0.358  1.00  0.00    +0.069 A 
ATOM     22  C   UNL     1       2.454   0.032  -1.538  1.00  0.00    +0.031 A 
ATOM     23  C   UNL     1       1.757  -0.179   0.759  1.00  0.00    +0.068 A 
ATOM     24  C   UNL     1       2.791  -0.012  -0.183  1.00  0.00    +0.061 A 
ATOM     25 Cl   UNL     1       2.099  -0.213   2.458  1.00  0.00    -0.082 Cl
BRANCH  24  26
ATOM     26  N   UNL     1       4.117   0.126   0.289  1.00  0.00    -0.307 N 
ATOM     27  C   UNL     1       5.282   0.147  -0.449  1.00  0.00    +0.319 C 
ATOM     28  O   UNL     1       5.377  -0.028  -1.657  1.00  0.00    -0.248 OA
ATOM     29  N   UNL     1       6.378   0.375   0.368  1.00  0.00    -0.335 N 
ATOM     30  H   UNL     1       4.227   0.055   1.292  1.00  0.00    +0.171 HD
ATOM     31  H   UNL     1       6.195   0.858   1.236  1.00  0.00    +0.165 HD
BRANCH  29  32
ATOM     32  C   UNL     1       7.700   0.486  -0.170  1.00  0.00    +0.084 C 
ATOM     33  C   UNL     1       8.357   1.830  -0.318  1.00  0.00    +0.027 C 
ATOM     34  C   UNL     1       8.857   0.863   0.715  1.00  0.00    +0.027 C 
ENDBRANCH  29  32
ENDBRANCH  24  26
ENDBRANCH   1  19
TORSDOF 6
