REMARK SMILES CNC(=O)c1cc(Oc2ccc(NC(=O)Nc3ccc(Cl)c(C(F)(F)F)c3)cc2)ccn1
REMARK SMILES IDX 9 1 10 2 11 3 12 4 28 5 29 6 8 7 7 8 5 9 6 10 32 11 31 12
REMARK SMILES IDX 30 13 3 14 2 15 4 16 1 17 13 19 14 20 15 21 16 22 17 25
REMARK SMILES IDX 18 26 27 27 19 28 22 29 20 30 21 31 23 32 24 33 25 34 26 35
REMARK H PARENT 2 18 13 23 16 24
ROOT
ATOM      1  C   UNL     1       1.931   1.106   2.247  1.00  0.00    +0.127 A 
ATOM      2  C   UNL     1       1.310   1.655   1.126  1.00  0.00    +0.049 A 
ATOM      3  C   UNL     1       0.044   1.203   0.738  1.00  0.00    +0.030 A 
ATOM      4  C   UNL     1      -0.615   0.216   1.476  1.00  0.00    +0.043 A 
ATOM      5  C   UNL     1       0.016  -0.317   2.610  1.00  0.00    +0.030 A 
ATOM      6  C   UNL     1       1.279   0.135   3.002  1.00  0.00    +0.049 A 
ENDROOT
BRANCH   1   7
ATOM      7  O   UNL     1       3.159   1.536   2.690  1.00  0.00    -0.457 OA
BRANCH   7   8
ATOM      8  C   UNL     1       4.193   1.521   1.780  1.00  0.00    +0.131 A 
ATOM      9  C   UNL     1       5.537   0.537   0.092  1.00  0.00    +0.131 A 
ATOM     10  C   UNL     1       4.441   0.446   0.934  1.00  0.00    +0.081 A 
ATOM     11  N   UNL     1       6.386   1.607   0.054  1.00  0.00    -0.251 NA
ATOM     12  C   UNL     1       6.118   2.617   0.907  1.00  0.00    +0.116 A 
ATOM     13  C   UNL     1       5.049   2.618   1.786  1.00  0.00    +0.067 A 
BRANCH   9  14
ATOM     14  C   UNL     1       5.855  -0.592  -0.842  1.00  0.00    +0.269 C 
ATOM     15  N   UNL     1       6.941  -0.361  -1.660  1.00  0.00    -0.354 N 
ATOM     16  O   UNL     1       5.196  -1.625  -0.847  1.00  0.00    -0.268 OA
ATOM     17  C   UNL     1       7.479  -1.369  -2.531  1.00  0.00    +0.143 C 
ATOM     18  H   UNL     1       7.459   0.495  -1.479  1.00  0.00    +0.163 HD
ENDBRANCH   9  14
ENDBRANCH   7   8
ENDBRANCH   1   7
BRANCH   4  19
ATOM     19  N   UNL     1      -1.882  -0.304   1.139  1.00  0.00    -0.308 N 
ATOM     20  C   UNL     1      -2.766   0.184   0.187  1.00  0.00    +0.323 C 
ATOM     21  O   UNL     1      -2.624   1.228  -0.436  1.00  0.00    -0.248 OA
ATOM     22  N   UNL     1      -3.839  -0.686   0.044  1.00  0.00    -0.308 N 
ATOM     23  H   UNL     1      -2.249  -1.006   1.762  1.00  0.00    +0.171 HD
ATOM     24  H   UNL     1      -3.692  -1.617   0.406  1.00  0.00    +0.171 HD
BRANCH  22  25
ATOM     25  C   UNL     1      -4.999  -0.493  -0.733  1.00  0.00    +0.043 A 
ATOM     26  C   UNL     1      -5.342   0.717  -1.332  1.00  0.00    +0.028 A 
ATOM     27  C   UNL     1      -5.862  -1.587  -0.883  1.00  0.00    +0.040 A 
ATOM     28  C   UNL     1      -6.519   0.829  -2.080  1.00  0.00    +0.023 A 
ATOM     29  C   UNL     1      -7.053  -1.491  -1.634  1.00  0.00    +0.076 A 
ATOM     30  C   UNL     1      -7.370  -0.268  -2.231  1.00  0.00    +0.053 A 
ATOM     31 Cl   UNL     1      -8.802  -0.046  -3.168  1.00  0.00    -0.084 Cl
BRANCH  29  32
ATOM     32  C   UNL     1      -7.951  -2.690  -1.774  1.00  0.00    +0.417 C 
ATOM     33  F   UNL     1      -9.197  -2.488  -1.266  1.00  0.00    -0.166 F 
ATOM     34  F   UNL     1      -8.116  -3.089  -3.064  1.00  0.00    -0.166 F 
ATOM     35  F   UNL     1      -7.471  -3.789  -1.118  1.00  0.00    -0.166 F 
ENDBRANCH  29  32
ENDBRANCH  22  25
ENDBRANCH   4  19
TORSDOF 6
