REMARK SMILES CCN1CCN(Cc2ccc(Nc3ncc(F)c(-c4cnc5cc(C)n(C(C)C)c5c4)n3)cn2)CC1
REMARK SMILES IDX 8 1 9 2 10 3 11 4 33 5 34 6 7 7 6 8 3 9 4 10 36 11 5 12
REMARK SMILES IDX 35 13 2 14 1 15 12 16 13 18 14 19 32 20 15 21 18 22 16 23
REMARK SMILES IDX 17 24 19 25 31 26 20 27 30 28 21 29 26 30 22 31 24 32 23 33
REMARK SMILES IDX 25 34 27 35 28 36 29 37
REMARK H PARENT 12 17
ROOT
ATOM      1  C   UNL     1       3.695   1.162  -0.834  1.00  0.00    +0.055 A 
ATOM      2  C   UNL     1       2.784   0.098  -0.891  1.00  0.00    +0.027 A 
ATOM      3  C   UNL     1       1.839  -0.058   0.124  1.00  0.00    +0.030 A 
ATOM      4  C   UNL     1       1.807   0.844   1.203  1.00  0.00    +0.059 A 
ATOM      5  C   UNL     1       2.776   1.858   1.247  1.00  0.00    +0.137 A 
ATOM      6  N   UNL     1       3.672   2.002   0.236  1.00  0.00    -0.258 NA
ENDROOT
BRANCH   1   7
ATOM      7  C   UNL     1       4.624   1.449  -1.992  1.00  0.00    +0.140 C 
BRANCH   7   8
ATOM      8  N   UNL     1       5.975   0.868  -1.848  1.00  0.00    -0.295 NA
ATOM      9  N   UNL     1       8.336  -0.490  -0.974  1.00  0.00    -0.301 NA
ATOM     10  C   UNL     1       8.178   0.968  -0.769  1.00  0.00    +0.100 C 
ATOM     11  C   UNL     1       7.405  -1.125  -1.931  1.00  0.00    +0.100 C 
ATOM     12  C   UNL     1       6.711   1.405  -0.694  1.00  0.00    +0.100 C 
ATOM     13  C   UNL     1       5.968  -0.601  -1.808  1.00  0.00    +0.100 C 
BRANCH   9  14
ATOM     14  C   UNL     1       8.693  -1.282   0.219  1.00  0.00    +0.081 C 
ATOM     15  C   UNL     1       7.584  -1.357   1.268  1.00  0.00    +0.021 C 
ENDBRANCH   9  14
ENDBRANCH   7   8
ENDBRANCH   1   7
BRANCH   4  16
ATOM     16  N   UNL     1       0.769   0.813   2.201  1.00  0.00    -0.323 N 
ATOM     17  H   UNL     1       0.706   1.614   2.869  1.00  0.00    +0.170 HD
BRANCH  16  18
ATOM     18  C   UNL     1      -0.374  -0.045   2.121  1.00  0.00    +0.227 A 
ATOM     19  N   UNL     1      -0.233  -1.393   2.208  1.00  0.00    -0.218 NA
ATOM     20  N   UNL     1      -1.610   0.494   1.955  1.00  0.00    -0.210 NA
ATOM     21  C   UNL     1      -1.314  -2.211   2.146  1.00  0.00    +0.156 A 
ATOM     22  C   UNL     1      -2.725  -0.279   1.855  1.00  0.00    +0.113 A 
ATOM     23  C   UNL     1      -2.588  -1.673   1.970  1.00  0.00    +0.167 A 
ATOM     24  F   UNL     1      -3.663  -2.500   1.954  1.00  0.00    -0.203 F 
BRANCH  22  25
ATOM     25  C   UNL     1      -4.032   0.375   1.608  1.00  0.00    +0.024 A 
ATOM     26  C   UNL     1      -4.996  -0.208   0.754  1.00  0.00    +0.040 A 
ATOM     27  C   UNL     1      -4.287   1.658   2.156  1.00  0.00    +0.122 A 
ATOM     28  C   UNL     1      -6.172   0.503   0.501  1.00  0.00    +0.068 A 
ATOM     29  N   UNL     1      -5.449   2.316   1.879  1.00  0.00    -0.254 NA
ATOM     30  N   UNL     1      -7.231   0.181  -0.287  1.00  0.00    -0.341 N 
ATOM     31  C   UNL     1      -6.361   1.733   1.065  1.00  0.00    +0.088 A 
ATOM     32  C   UNL     1      -8.074   1.253  -0.206  1.00  0.00    +0.017 A 
ATOM     33  C   UNL     1      -7.563   2.237   0.634  1.00  0.00    +0.052 A 
ATOM     34  C   UNL     1      -9.379   1.377  -0.933  1.00  0.00    +0.064 C 
BRANCH  30  35
ATOM     35  C   UNL     1      -7.466  -1.048  -1.070  1.00  0.00    +0.081 C 
ATOM     36  C   UNL     1      -6.417  -1.230  -2.171  1.00  0.00    +0.031 C 
ATOM     37  C   UNL     1      -7.576  -2.276  -0.160  1.00  0.00    +0.031 C 
ENDBRANCH  30  35
ENDBRANCH  22  25
ENDBRANCH  16  18
ENDBRANCH   4  16
TORSDOF 7
