REMARK SMILES CNC(=O)c1ccccc1Sc1ccc2c(/C=C/c3ccccn3)[nH]nc2c1
REMARK SMILES IDX 11 1 10 2 5 3 6 4 7 5 9 6 8 7 3 8 2 9 4 10 1 11 12 13 13 14
REMARK SMILES IDX 28 15 14 16 27 17 15 18 26 19 16 20 25 21 17 23 18 24 19 25
REMARK SMILES IDX 20 26 24 27 21 28 23 29 22 30
REMARK H PARENT 2 12 25 22
ROOT
ATOM      1  S   UNL     1      -3.127  -2.163  -0.256  1.00  0.00    -0.089 SA
ENDROOT
BRANCH   1   2
ATOM      2  C   UNL     1      -3.650  -0.859   0.876  1.00  0.00    +0.025 A 
ATOM      3  C   UNL     1      -4.730   0.035   0.586  1.00  0.00    +0.053 A 
ATOM      4  C   UNL     1      -5.067   1.020   1.537  1.00  0.00    +0.015 A 
ATOM      5  C   UNL     1      -4.386   1.108   2.754  1.00  0.00    +0.001 A 
ATOM      6  C   UNL     1      -3.024  -0.788   2.130  1.00  0.00    +0.016 A 
ATOM      7  C   UNL     1      -3.387   0.181   3.066  1.00  0.00    +0.001 A 
BRANCH   3   8
ATOM      8  C   UNL     1      -5.609  -0.124  -0.616  1.00  0.00    +0.252 C 
ATOM      9  N   UNL     1      -6.550   0.897  -0.988  1.00  0.00    -0.355 N 
ATOM     10  O   UNL     1      -5.586  -1.192  -1.287  1.00  0.00    -0.269 OA
ATOM     11  C   UNL     1      -7.764   0.587  -1.754  1.00  0.00    +0.143 C 
ATOM     12  H   UNL     1      -6.377   1.887  -0.700  1.00  0.00    +0.163 HD
ENDBRANCH   3   8
ENDBRANCH   1   2
BRANCH   1  13
ATOM     13  C   UNL     1      -1.369  -1.793  -0.211  1.00  0.00    +0.014 A 
ATOM     14  C   UNL     1      -0.819  -0.720  -0.963  1.00  0.00    +0.016 A 
ATOM     15  C   UNL     1      -0.549  -2.580   0.623  1.00  0.00    +0.046 A 
ATOM     16  C   UNL     1       0.557  -0.412  -0.850  1.00  0.00    +0.014 A 
ATOM     17  C   UNL     1       0.795  -2.269   0.707  1.00  0.00    +0.094 A 
ATOM     18  C   UNL     1       1.329  -1.217   0.006  1.00  0.00    +0.027 A 
ATOM     19  N   UNL     1       1.731  -2.878   1.465  1.00  0.00    -0.175 NA
ATOM     20  C   UNL     1       2.661  -1.216   0.346  1.00  0.00    +0.066 A 
ATOM     21  N   UNL     1       2.866  -2.228   1.235  1.00  0.00    -0.277 N 
ATOM     22  H   UNL     1       3.764  -2.448   1.743  1.00  0.00    +0.190 HD
BRANCH  20  23
ATOM     23  C   UNL     1       3.681  -0.238  -0.089  1.00  0.00    +0.030 C 
ATOM     24  C   UNL     1       4.995  -0.454   0.111  1.00  0.00    +0.030 C 
BRANCH  24  25
ATOM     25  C   UNL     1       6.043   0.517  -0.277  1.00  0.00    +0.063 A 
ATOM     26  C   UNL     1       5.796   1.900  -0.416  1.00  0.00    +0.028 A 
ATOM     27  N   UNL     1       7.310   0.053  -0.471  1.00  0.00    -0.257 NA
ATOM     28  C   UNL     1       6.849   2.760  -0.722  1.00  0.00    +0.004 A 
ATOM     29  C   UNL     1       8.346   0.875  -0.767  1.00  0.00    +0.111 A 
ATOM     30  C   UNL     1       8.134   2.250  -0.892  1.00  0.00    +0.020 A 
ENDBRANCH  24  25
ENDBRANCH  20  23
ENDBRANCH   1  13
TORSDOF 5
