REMARK SMILES CC(C)C[C@H](NC(=O)[C@H](Cc1ccccc1)NC(=O)c1cnccn1)B(O)O
REMARK SMILES IDX 6 1 7 2 8 3 5 5 4 6 2 7 1 8 3 9 26 10 27 11 28 13 9 15 10 16
REMARK SMILES IDX 11 17 12 18 16 19 13 20 15 21 14 22 17 23 18 24 19 25 20 27
REMARK SMILES IDX 21 28 25 29 22 30 24 31 23 32
REMARK H PARENT 6 4 27 12 28 14 17 26
ROOT
ATOM      1  N   UNL     1      -1.751   0.621  -0.076  1.00  0.00    -0.353 N 
ATOM      2  C   UNL     1      -0.598  -0.199   0.034  1.00  0.00    +0.242 C 
ATOM      3  O   UNL     1      -0.675  -1.457   0.015  1.00  0.00    -0.273 OA
ATOM      4  H   UNL     1      -1.684   1.656  -0.060  1.00  0.00    +0.163 HD
ENDROOT
BRANCH   1   5
ATOM      5  C   UNL     1      -3.044  -0.064  -0.213  1.00  0.00    +0.114 C 
BRANCH   5   6
ATOM      6  C   UNL     1      -3.848   0.368   0.990  1.00  0.00    +0.025 C 
BRANCH   6   7
ATOM      7  C   UNL     1      -5.204  -0.238   1.034  1.00  0.00    -0.016 C 
ATOM      8  C   UNL     1      -6.020   0.132  -0.156  1.00  0.00    +0.007 C 
ATOM      9  C   UNL     1      -5.130  -1.742   1.202  1.00  0.00    +0.007 C 
ENDBRANCH   6   7
ENDBRANCH   5   6
BRANCH   5  10
ATOM     10  B   UNL     1      -3.678   0.402  -1.587  1.00  0.00    +0.475 B 
BRANCH  10  11
ATOM     11  O   UNL     1      -3.714  -0.574  -2.693  1.00  0.00    -0.426 OA
ATOM     12  H   UNL     1      -4.009  -1.453  -2.325  1.00  0.00    +0.189 HD
ENDBRANCH  10  11
BRANCH  10  13
ATOM     13  O   UNL     1      -3.568   1.819  -1.920  1.00  0.00    -0.426 OA
ATOM     14  H   UNL     1      -2.959   1.874  -2.691  1.00  0.00    +0.189 HD
ENDBRANCH  10  13
ENDBRANCH   5  10
ENDBRANCH   1   5
BRANCH   2  15
ATOM     15  C   UNL     1       0.754   0.387   0.177  1.00  0.00    +0.176 C 
BRANCH  15  16
ATOM     16  C   UNL     1       0.971   1.288  -1.040  1.00  0.00    +0.070 C 
BRANCH  16  17
ATOM     17  C   UNL     1       2.305   1.931  -0.999  1.00  0.00    -0.045 A 
ATOM     18  C   UNL     1       2.433   3.172  -0.362  1.00  0.00    +0.004 A 
ATOM     19  C   UNL     1       3.401   1.311  -1.580  1.00  0.00    +0.004 A 
ATOM     20  C   UNL     1       3.671   3.808  -0.303  1.00  0.00    +0.000 A 
ATOM     21  C   UNL     1       4.618   1.951  -1.514  1.00  0.00    +0.000 A 
ATOM     22  C   UNL     1       4.756   3.185  -0.884  1.00  0.00    +0.000 A 
ENDBRANCH  16  17
ENDBRANCH  15  16
BRANCH  15  23
ATOM     23  N   UNL     1       1.747  -0.640   0.269  1.00  0.00    -0.339 N 
ATOM     24  C   UNL     1       2.683  -0.766   1.328  1.00  0.00    +0.272 C 
ATOM     25  O   UNL     1       2.668   0.061   2.264  1.00  0.00    -0.267 OA
ATOM     26  H   UNL     1       1.782  -1.350  -0.506  1.00  0.00    +0.164 HD
BRANCH  24  27
ATOM     27  C   UNL     1       3.650  -1.882   1.285  1.00  0.00    +0.146 A 
ATOM     28  C   UNL     1       4.577  -2.051   2.282  1.00  0.00    +0.145 A 
ATOM     29  N   UNL     1       3.640  -2.763   0.254  1.00  0.00    -0.248 NA
ATOM     30  N   UNL     1       5.462  -3.084   2.229  1.00  0.00    -0.261 NA
ATOM     31  C   UNL     1       4.514  -3.788   0.195  1.00  0.00    +0.132 A 
ATOM     32  C   UNL     1       5.438  -3.956   1.191  1.00  0.00    +0.131 A 
ENDBRANCH  24  27
ENDBRANCH  15  23
ENDBRANCH   2  15
TORSDOF 11
