REMARK SMILES COc1cc(Nc2ncc(Cl)c(Nc3ccccc3P(C)(C)=O)n2)ccc1N1CCN(C)CC1
REMARK SMILES IDX 7 1 8 2 9 3 10 4 11 5 12 6 24 7 6 8 5 10 3 11 4 12 27 13
REMARK SMILES IDX 26 14 25 15 2 16 1 17 28 18 29 19 34 20 30 21 33 22 31 23
REMARK SMILES IDX 32 24 13 25 14 27 15 28 19 29 16 30 18 31 17 32 20 33 23 34
REMARK SMILES IDX 21 35 22 36
REMARK H PARENT 6 9 13 26
ROOT
ATOM      1  C   UNL     1      -1.247  -0.067   0.926  1.00  0.00    +0.229 A 
ATOM      2  N   UNL     1      -0.899  -0.266   2.230  1.00  0.00    -0.220 NA
ATOM      3  C   UNL     1      -1.831  -0.281   3.222  1.00  0.00    +0.139 A 
ATOM      4  C   UNL     1      -3.171  -0.065   2.911  1.00  0.00    +0.102 A 
ATOM      5 Cl   UNL     1      -4.382  -0.094   4.183  1.00  0.00    -0.079 Cl
ATOM      6  C   UNL     1      -3.520   0.145   1.570  1.00  0.00    +0.154 A 
ATOM      7  N   UNL     1      -2.552   0.136   0.611  1.00  0.00    -0.194 NA
ENDROOT
BRANCH   1   8
ATOM      8  N   UNL     1      -0.266  -0.050  -0.130  1.00  0.00    -0.324 N 
ATOM      9  H   UNL     1      -0.635   0.141  -1.089  1.00  0.00    +0.170 HD
BRANCH   8  10
ATOM     10  C   UNL     1       1.167  -0.087   0.026  1.00  0.00    +0.045 A 
ATOM     11  C   UNL     1       3.376   0.451  -0.895  1.00  0.00    +0.144 A 
ATOM     12  C   UNL     1       1.971   0.470  -0.986  1.00  0.00    +0.074 A 
ATOM     13  C   UNL     1       3.990  -0.097   0.251  1.00  0.00    +0.080 A 
ATOM     14  C   UNL     1       3.191  -0.699   1.238  1.00  0.00    +0.032 A 
ATOM     15  C   UNL     1       1.797  -0.706   1.115  1.00  0.00    +0.028 A 
BRANCH  11  16
ATOM     16  O   UNL     1       4.191   0.937  -1.933  1.00  0.00    -0.495 OA
ATOM     17  C   UNL     1       3.725   1.343  -3.215  1.00  0.00    +0.278 C 
ENDBRANCH  11  16
BRANCH  13  18
ATOM     18  N   UNL     1       5.427  -0.098   0.378  1.00  0.00    -0.366 N 
ATOM     19  C   UNL     1       6.141   1.180   0.497  1.00  0.00    +0.132 C 
ATOM     20  C   UNL     1       6.116  -1.311   0.851  1.00  0.00    +0.132 C 
ATOM     21  C   UNL     1       7.569   1.042  -0.049  1.00  0.00    +0.105 C 
ATOM     22  C   UNL     1       7.544  -1.355   0.299  1.00  0.00    +0.105 C 
ATOM     23  N   UNL     1       8.250  -0.097   0.606  1.00  0.00    -0.303 NA
ATOM     24  C   UNL     1       9.643  -0.179   0.142  1.00  0.00    +0.105 C 
ENDBRANCH  13  18
ENDBRANCH   8  10
ENDBRANCH   1   8
BRANCH   6  25
ATOM     25  N   UNL     1      -4.888   0.365   1.200  1.00  0.00    -0.338 N 
ATOM     26  H   UNL     1      -5.319   1.278   1.490  1.00  0.00    +0.168 HD
BRANCH  25  27
ATOM     27  C   UNL     1      -5.667  -0.631   0.509  1.00  0.00    +0.050 A 
ATOM     28  C   UNL     1      -5.336  -1.989   0.660  1.00  0.00    +0.027 A 
ATOM     29  C   UNL     1      -6.821  -0.287  -0.255  1.00  0.00    +0.035 A 
ATOM     30  C   UNL     1      -6.163  -2.992   0.143  1.00  0.00    +0.002 A 
ATOM     31  C   UNL     1      -7.661  -1.311  -0.730  1.00  0.00    +0.014 A 
ATOM     32  C   UNL     1      -7.338  -2.653  -0.530  1.00  0.00    +0.001 A 
BRANCH  29  33
ATOM     33  P   UNL     1      -7.258   1.410  -0.716  1.00  0.00    +0.111 P 
ATOM     34  O   UNL     1      -6.121   2.381  -0.480  1.00  0.00    -0.319 OA
ATOM     35  C   UNL     1      -7.651   1.456  -2.491  1.00  0.00    +0.087 C 
ATOM     36  C   UNL     1      -8.709   1.953   0.225  1.00  0.00    +0.087 C 
ENDBRANCH  29  33
ENDBRANCH  25  27
ENDBRANCH   6  25
TORSDOF 7
