REMARK SMILES Cc1nc(-c2cnc3[nH]ccc3c2)nc(N2CCOCC2)c1C(F)(F)F
REMARK SMILES IDX 1 1 2 2 3 3 4 4 14 5 15 6 22 7 23 8 24 9 25 10 26 11 5 12
REMARK SMILES IDX 6 13 13 14 7 15 12 16 8 17 11 18 9 19 10 20 16 22 17 23
REMARK SMILES IDX 21 24 18 25 20 26 19 27
REMARK H PARENT 9 21
ROOT
ATOM      1  C   UNL     1      -0.660  -0.776  -4.129  1.00  0.00    +0.067 C 
ATOM      2  C   UNL     1      -0.487  -0.551  -2.654  1.00  0.00    +0.056 A 
ATOM      3  N   UNL     1       0.781  -0.546  -2.163  1.00  0.00    -0.233 NA
ATOM      4  C   UNL     1       1.045  -0.323  -0.852  1.00  0.00    +0.163 A 
ATOM      5  N   UNL     1       0.018  -0.066  -0.005  1.00  0.00    -0.210 NA
ATOM      6  C   UNL     1      -1.274  -0.058  -0.423  1.00  0.00    +0.145 A 
ATOM      7  C   UNL     1      -1.583  -0.362  -1.774  1.00  0.00    +0.119 A 
ENDROOT
BRANCH   7   8
ATOM      8  C   UNL     1      -3.022  -0.417  -2.277  1.00  0.00    +0.421 C 
ATOM      9  F   UNL     1      -3.349   0.784  -2.876  1.00  0.00    -0.166 F 
ATOM     10  F   UNL     1      -3.918  -0.662  -1.253  1.00  0.00    -0.166 F 
ATOM     11  F   UNL     1      -3.188  -1.433  -3.199  1.00  0.00    -0.166 F 
ENDBRANCH   7   8
BRANCH   4  12
ATOM     12  C   UNL     1       2.442  -0.326  -0.357  1.00  0.00    +0.038 A 
ATOM     13  C   UNL     1       3.531  -0.553  -1.246  1.00  0.00    +0.125 A 
ATOM     14  C   UNL     1       2.718  -0.080   1.008  1.00  0.00    +0.025 A 
ATOM     15  N   UNL     1       4.821  -0.538  -0.793  1.00  0.00    -0.238 NA
ATOM     16  C   UNL     1       4.047  -0.080   1.410  1.00  0.00    +0.019 A 
ATOM     17  C   UNL     1       5.055  -0.307   0.523  1.00  0.00    +0.137 A 
ATOM     18  C   UNL     1       4.627   0.130   2.642  1.00  0.00    +0.030 A 
ATOM     19  N   UNL     1       6.255  -0.258   1.121  1.00  0.00    -0.346 N 
ATOM     20  C   UNL     1       5.997   0.010   2.423  1.00  0.00    +0.085 A 
ATOM     21  H   UNL     1       7.192  -0.380   0.678  1.00  0.00    +0.167 HD
ENDBRANCH   4  12
BRANCH   6  22
ATOM     22  N   UNL     1      -2.288   0.303   0.522  1.00  0.00    -0.351 N 
ATOM     23  C   UNL     1      -2.838   1.664   0.476  1.00  0.00    +0.146 C 
ATOM     24  C   UNL     1      -2.451  -0.520   1.721  1.00  0.00    +0.146 C 
ATOM     25  C   UNL     1      -4.208   1.754   1.192  1.00  0.00    +0.181 C 
ATOM     26  C   UNL     1      -3.445   0.132   2.679  1.00  0.00    +0.181 C 
ATOM     27  O   UNL     1      -4.552   0.595   1.943  1.00  0.00    -0.378 OA
ENDBRANCH   6  22
TORSDOF 3
