REMARK SMILES Nc1cc(C(F)(F)F)c(-c2cc(N3CCOCC3)nc(N3CCOCC3)n2)cn1
REMARK SMILES IDX 2 1 3 2 4 3 9 4 28 5 29 6 1 7 5 10 6 11 7 12 8 13 10 14
REMARK SMILES IDX 11 15 27 16 12 17 20 18 19 19 13 20 14 21 18 22 15 23 17 24
REMARK SMILES IDX 16 25 21 26 22 27 26 28 23 29 25 30 24 31
REMARK H PARENT 1 8 1 9
ROOT
ATOM      1  C   UNL     1       5.235   1.351  -0.587  1.00  0.00    +0.123 A 
ATOM      2  C   UNL     1       4.230   2.125  -1.141  1.00  0.00    +0.060 A 
ATOM      3  C   UNL     1       2.886   1.733  -1.001  1.00  0.00    +0.070 A 
ATOM      4  C   UNL     1       2.593   0.559  -0.282  1.00  0.00    +0.031 A 
ATOM      5  C   UNL     1       3.687  -0.140   0.231  1.00  0.00    +0.124 A 
ATOM      6  N   UNL     1       4.984   0.221   0.085  1.00  0.00    -0.239 NA
ENDROOT
BRANCH   1   7
ATOM      7  N   UNL     1       6.570   1.699  -0.746  1.00  0.00    -0.384 N 
ATOM      8  H   UNL     1       7.122   1.019  -0.229  1.00  0.00    +0.158 HD
ATOM      9  H   UNL     1       6.756   2.646  -0.437  1.00  0.00    +0.158 HD
ENDBRANCH   1   7
BRANCH   3  10
ATOM     10  C   UNL     1       1.810   2.583  -1.629  1.00  0.00    +0.417 C 
ATOM     11  F   UNL     1       2.305   3.411  -2.599  1.00  0.00    -0.166 F 
ATOM     12  F   UNL     1       1.188   3.411  -0.746  1.00  0.00    -0.166 F 
ATOM     13  F   UNL     1       0.834   1.866  -2.251  1.00  0.00    -0.166 F 
ENDBRANCH   3  10
BRANCH   4  14
ATOM     14  C   UNL     1       1.230   0.073  -0.049  1.00  0.00    +0.080 A 
ATOM     15  C   UNL     1       0.828  -1.201  -0.381  1.00  0.00    +0.076 A 
ATOM     16  N   UNL     1       0.398   0.966   0.508  1.00  0.00    -0.213 NA
ATOM     17  C   UNL     1      -0.484  -1.533  -0.118  1.00  0.00    +0.134 A 
ATOM     18  C   UNL     1      -0.872   0.599   0.718  1.00  0.00    +0.228 A 
ATOM     19  N   UNL     1      -1.323  -0.628   0.413  1.00  0.00    -0.196 NA
BRANCH  17  20
ATOM     20  N   UNL     1      -0.957  -2.818  -0.459  1.00  0.00    -0.352 N 
ATOM     21  C   UNL     1      -0.266  -3.904   0.273  1.00  0.00    +0.146 C 
ATOM     22  C   UNL     1      -2.429  -2.941  -0.339  1.00  0.00    +0.146 C 
ATOM     23  C   UNL     1      -0.793  -5.269  -0.203  1.00  0.00    +0.181 C 
ATOM     24  C   UNL     1      -2.871  -4.337  -0.803  1.00  0.00    +0.181 C 
ATOM     25  O   UNL     1      -2.217  -5.371  -0.048  1.00  0.00    -0.378 OA
ENDBRANCH  17  20
BRANCH  18  26
ATOM     26  N   UNL     1      -1.756   1.503   1.296  1.00  0.00    -0.336 N 
ATOM     27  C   UNL     1      -1.337   2.909   1.390  1.00  0.00    +0.148 C 
ATOM     28  C   UNL     1      -3.158   1.295   0.894  1.00  0.00    +0.148 C 
ATOM     29  C   UNL     1      -2.093   3.749   0.351  1.00  0.00    +0.181 C 
ATOM     30  C   UNL     1      -3.992   2.546   1.206  1.00  0.00    +0.181 C 
ATOM     31  O   UNL     1      -3.522   3.722   0.525  1.00  0.00    -0.378 OA
ENDBRANCH  18  26
ENDBRANCH   4  14
TORSDOF 5
