REMARK SMILES COc1cc2ncnc(Nc3ccc(Oc4ccc(NC(=O)C5(C(=O)Nc6ccc(F)cc6)CC5)cc4)c(F)c3)c2cc1OC
REMARK SMILES IDX 16 1 17 2 18 3 19 4 36 5 37 6 15 7 14 8 11 9 12 10 40 11
REMARK SMILES IDX 13 12 38 13 39 14 10 15 9 17 43 18 42 19 3 20 41 21 4 22
REMARK SMILES IDX 5 23 8 24 6 25 7 26 44 27 45 28 2 29 1 30 20 31 21 32 22 33
REMARK SMILES IDX 23 35 34 36 35 37 24 38 25 39 26 40 27 42 28 43 33 44 29 45
REMARK SMILES IDX 32 46 30 47 31 48
REMARK H PARENT 10 16 20 34 26 41
ROOT
ATOM      1  C   UNL     1       1.489   0.281  -2.068  1.00  0.00    +0.127 A 
ATOM      2  C   UNL     1       1.239   1.171  -1.006  1.00  0.00    +0.049 A 
ATOM      3  C   UNL     1       2.094   1.211   0.100  1.00  0.00    +0.030 A 
ATOM      4  C   UNL     1       3.197   0.351   0.166  1.00  0.00    +0.041 A 
ATOM      5  C   UNL     1       3.450  -0.540  -0.885  1.00  0.00    +0.030 A 
ATOM      6  C   UNL     1       2.619  -0.553  -2.011  1.00  0.00    +0.049 A 
ENDROOT
BRANCH   1   7
ATOM      7  O   UNL     1       0.628   0.200  -3.172  1.00  0.00    -0.454 OA
BRANCH   7   8
ATOM      8  C   UNL     1      -0.755   0.105  -3.008  1.00  0.00    +0.163 A 
ATOM      9  C   UNL     1      -3.502  -0.114  -2.496  1.00  0.00    +0.043 A 
ATOM     10  C   UNL     1      -2.925   1.148  -2.705  1.00  0.00    +0.030 A 
ATOM     11  C   UNL     1      -2.715  -1.268  -2.601  1.00  0.00    +0.069 A 
ATOM     12  C   UNL     1      -1.557   1.256  -2.981  1.00  0.00    +0.052 A 
ATOM     13  C   UNL     1      -1.343  -1.156  -2.838  1.00  0.00    +0.167 A 
ATOM     14  F   UNL     1      -0.584  -2.278  -2.881  1.00  0.00    -0.203 F 
BRANCH   9  15
ATOM     15  N   UNL     1      -4.866  -0.225  -2.077  1.00  0.00    -0.340 N 
ATOM     16  H   UNL     1      -5.472  -0.868  -2.625  1.00  0.00    +0.168 HD
BRANCH  15  17
ATOM     17  C   UNL     1      -5.225   0.087  -0.718  1.00  0.00    +0.141 A 
ATOM     18  C   UNL     1      -8.977  -0.207  -0.602  1.00  0.00    +0.161 A 
ATOM     19  C   UNL     1      -7.666  -0.170  -1.118  1.00  0.00    +0.064 A 
ATOM     20  C   UNL     1      -9.190  -0.045   0.774  1.00  0.00    +0.162 A 
ATOM     21  C   UNL     1      -6.565   0.039  -0.267  1.00  0.00    +0.047 A 
ATOM     22  C   UNL     1      -8.098   0.173   1.627  1.00  0.00    +0.079 A 
ATOM     23  C   UNL     1      -6.800   0.233   1.114  1.00  0.00    +0.080 A 
ATOM     24  N   UNL     1      -4.236   0.356   0.179  1.00  0.00    -0.219 NA
ATOM     25  N   UNL     1      -5.764   0.483   1.957  1.00  0.00    -0.236 NA
ATOM     26  C   UNL     1      -4.493   0.559   1.495  1.00  0.00    +0.224 A 
BRANCH  18  27
ATOM     27  O   UNL     1     -10.100  -0.397  -1.426  1.00  0.00    -0.493 OA
ATOM     28  C   UNL     1     -10.047  -0.613  -2.831  1.00  0.00    +0.278 C 
ENDBRANCH  18  27
BRANCH  20  29
ATOM     29  O   UNL     1     -10.510  -0.100   1.252  1.00  0.00    -0.493 OA
ATOM     30  C   UNL     1     -10.884   0.071   2.614  1.00  0.00    +0.278 C 
ENDBRANCH  20  29
ENDBRANCH  15  17
ENDBRANCH   9  15
ENDBRANCH   7   8
ENDBRANCH   1   7
BRANCH   4  31
ATOM     31  N   UNL     1       4.044   0.358   1.315  1.00  0.00    -0.325 N 
ATOM     32  C   UNL     1       4.926   1.447   1.600  1.00  0.00    +0.240 C 
ATOM     33  O   UNL     1       4.878   2.497   0.903  1.00  0.00    -0.274 OA
ATOM     34  H   UNL     1       4.163  -0.535   1.847  1.00  0.00    +0.169 HD
BRANCH  32  35
ATOM     35  C   UNL     1       5.994   1.295   2.641  1.00  0.00    +0.128 C 
ATOM     36  C   UNL     1       5.523   0.911   4.047  1.00  0.00    +0.028 C 
ATOM     37  C   UNL     1       5.983   2.338   3.761  1.00  0.00    +0.028 C 
BRANCH  35  38
ATOM     38  C   UNL     1       7.331   0.752   2.217  1.00  0.00    +0.240 C 
ATOM     39  O   UNL     1       8.398   1.233   2.711  1.00  0.00    -0.274 OA
ATOM     40  N   UNL     1       7.405  -0.342   1.293  1.00  0.00    -0.325 N 
ATOM     41  H   UNL     1       6.559  -0.931   1.099  1.00  0.00    +0.169 HD
BRANCH  40  42
ATOM     42  C   UNL     1       8.622  -0.670   0.626  1.00  0.00    +0.041 A 
ATOM     43  C   UNL     1       9.251   0.279  -0.191  1.00  0.00    +0.029 A 
ATOM     44  C   UNL     1       9.186  -1.938   0.785  1.00  0.00    +0.029 A 
ATOM     45  C   UNL     1      10.463  -0.027  -0.816  1.00  0.00    +0.041 A 
ATOM     46  C   UNL     1      10.409  -2.240   0.178  1.00  0.00    +0.041 A 
ATOM     47  C   UNL     1      11.050  -1.282  -0.620  1.00  0.00    +0.123 A 
ATOM     48  F   UNL     1      12.241  -1.570  -1.198  1.00  0.00    -0.207 F 
ENDBRANCH  40  42
ENDBRANCH  35  38
ENDBRANCH  32  35
ENDBRANCH   4  31
TORSDOF 10
