REMARK SMILES COc1cc2nccc(Oc3ccc(NC(=O)C4(C(=O)Nc5ccc(F)cc5)CC4)cc3)c2cc1OC
REMARK SMILES IDX 11 1 12 2 13 3 14 4 31 5 32 6 10 7 9 8 3 9 4 10 35 11 5 12
REMARK SMILES IDX 34 13 6 14 33 15 7 16 8 17 2 18 1 19 36 20 37 21 15 22 16 23
REMARK SMILES IDX 17 24 18 26 29 27 30 28 19 29 20 30 21 31 22 33 23 34 28 35
REMARK SMILES IDX 24 36 27 37 25 38 26 39
REMARK H PARENT 15 25 21 32
ROOT
ATOM      1  C   UNL     1      -1.264   1.504   1.491  1.00  0.00    +0.127 A 
ATOM      2  C   UNL     1      -0.223   2.360   1.845  1.00  0.00    +0.049 A 
ATOM      3  C   UNL     1       1.095   1.896   1.840  1.00  0.00    +0.030 A 
ATOM      4  C   UNL     1       1.387   0.578   1.466  1.00  0.00    +0.041 A 
ATOM      5  C   UNL     1       0.339  -0.267   1.093  1.00  0.00    +0.030 A 
ATOM      6  C   UNL     1      -0.982   0.196   1.096  1.00  0.00    +0.049 A 
ENDROOT
BRANCH   1   7
ATOM      7  O   UNL     1      -2.531   2.042   1.492  1.00  0.00    -0.457 OA
BRANCH   7   8
ATOM      8  C   UNL     1      -3.557   1.237   1.945  1.00  0.00    +0.138 A 
ATOM      9  C   UNL     1      -6.943   0.482  -0.470  1.00  0.00    +0.162 A 
ATOM     10  C   UNL     1      -6.818  -0.029   0.830  1.00  0.00    +0.079 A 
ATOM     11  C   UNL     1      -5.892   1.246  -0.994  1.00  0.00    +0.161 A 
ATOM     12  C   UNL     1      -5.705   0.217   1.626  1.00  0.00    +0.078 A 
ATOM     13  C   UNL     1      -4.777   1.524  -0.199  1.00  0.00    +0.064 A 
ATOM     14  N   UNL     1      -5.667  -0.307   2.865  1.00  0.00    -0.256 NA
ATOM     15  C   UNL     1      -4.667   1.010   1.109  1.00  0.00    +0.047 A 
ATOM     16  C   UNL     1      -4.592  -0.046   3.641  1.00  0.00    +0.115 A 
ATOM     17  C   UNL     1      -3.522   0.721   3.236  1.00  0.00    +0.068 A 
BRANCH   9  18
ATOM     18  O   UNL     1      -8.048   0.294  -1.257  1.00  0.00    -0.493 OA
ATOM     19  C   UNL     1      -9.171  -0.362  -0.683  1.00  0.00    +0.278 C 
ENDBRANCH   9  18
BRANCH  11  20
ATOM     20  O   UNL     1      -5.842   1.829  -2.234  1.00  0.00    -0.493 OA
ATOM     21  C   UNL     1      -6.389   1.063  -3.303  1.00  0.00    +0.278 C 
ENDBRANCH  11  20
ENDBRANCH   7   8
ENDBRANCH   1   7
BRANCH   4  22
ATOM     22  N   UNL     1       2.739   0.187   1.492  1.00  0.00    -0.325 N 
ATOM     23  C   UNL     1       3.269  -1.031   1.127  1.00  0.00    +0.240 C 
ATOM     24  O   UNL     1       2.686  -2.010   0.683  1.00  0.00    -0.274 OA
ATOM     25  H   UNL     1       3.407   0.897   1.773  1.00  0.00    +0.169 HD
BRANCH  23  26
ATOM     26  C   UNL     1       4.757  -1.101   1.294  1.00  0.00    +0.128 C 
ATOM     27  C   UNL     1       5.322  -0.983   2.710  1.00  0.00    +0.028 C 
ATOM     28  C   UNL     1       5.338  -2.312   2.026  1.00  0.00    +0.028 C 
BRANCH  26  29
ATOM     29  C   UNL     1       5.556  -0.522   0.166  1.00  0.00    +0.240 C 
ATOM     30  O   UNL     1       5.996   0.612   0.283  1.00  0.00    -0.274 OA
ATOM     31  N   UNL     1       5.676  -1.377  -0.908  1.00  0.00    -0.325 N 
ATOM     32  H   UNL     1       5.170  -2.254  -0.835  1.00  0.00    +0.169 HD
BRANCH  31  33
ATOM     33  C   UNL     1       6.367  -1.151  -2.113  1.00  0.00    +0.041 A 
ATOM     34  C   UNL     1       7.113   0.001  -2.378  1.00  0.00    +0.029 A 
ATOM     35  C   UNL     1       6.296  -2.157  -3.088  1.00  0.00    +0.029 A 
ATOM     36  C   UNL     1       7.775   0.148  -3.601  1.00  0.00    +0.041 A 
ATOM     37  C   UNL     1       6.957  -2.009  -4.310  1.00  0.00    +0.041 A 
ATOM     38  C   UNL     1       7.692  -0.857  -4.555  1.00  0.00    +0.123 A 
ATOM     39  F   UNL     1       8.327  -0.715  -5.725  1.00  0.00    -0.207 F 
ENDBRANCH  31  33
ENDBRANCH  26  29
ENDBRANCH  23  26
ENDBRANCH   4  22
TORSDOF 8
