REMARK SMILES O=NN(CCCl)C(=O)NCCCl
REMARK SMILES IDX 7 1 8 2 9 3 3 5 2 6 1 7 4 8 5 9 6 10 10 11 11 12 12 13
REMARK H PARENT 9 4
ROOT
ATOM      1  C   UNL     1      -0.114   0.360  -0.166  1.00  0.00    +0.340 C 
ATOM      2  O   UNL     1      -0.276   1.504  -0.672  1.00  0.00    -0.247 OA
ATOM      3  N   UNL     1       1.208  -0.091   0.162  1.00  0.00    -0.335 N 
ATOM      4  H   UNL     1       1.317  -0.942   0.757  1.00  0.00    +0.165 HD
ENDROOT
BRANCH   1   5
ATOM      5  N   UNL     1      -1.262  -0.464   0.118  1.00  0.00    -0.177 N 
BRANCH   5   6
ATOM      6  N   UNL     1      -1.201  -1.867   0.027  1.00  0.00    +0.061 NA
ATOM      7  O   UNL     1      -0.232  -2.451  -0.503  1.00  0.00    -0.125 OA
ENDBRANCH   5   6
BRANCH   5   8
ATOM      8  C   UNL     1      -2.549   0.154   0.446  1.00  0.00    +0.169 C 
BRANCH   8   9
ATOM      9  C   UNL     1      -3.367   0.429  -0.817  1.00  0.00    +0.133 C 
ATOM     10 Cl   UNL     1      -3.892  -1.089  -1.592  1.00  0.00    -0.125 Cl
ENDBRANCH   8   9
ENDBRANCH   5   8
ENDBRANCH   1   5
BRANCH   3  11
ATOM     11  C   UNL     1       2.393   0.654  -0.265  1.00  0.00    +0.134 C 
BRANCH  11  12
ATOM     12  C   UNL     1       3.679  -0.042   0.179  1.00  0.00    +0.131 C 
ATOM     13 Cl   UNL     1       3.869  -1.612  -0.646  1.00  0.00    -0.125 Cl
ENDBRANCH  11  12
ENDBRANCH   3  11
TORSDOF 6
