REMARK SMILES O=NN(CCCl)C(=O)NCCCl
REMARK SMILES IDX 7 1 8 2 9 3 3 5 2 6 1 7 4 8 5 9 6 10 10 11 11 12 12 13
REMARK H PARENT 9 4
ROOT
ATOM      1  C   UNL     1       0.239   0.032  -0.700  1.00  0.00    +0.340 C 
ATOM      2  O   UNL     1       0.370  -1.156  -1.001  1.00  0.00    -0.247 OA
ATOM      3  N   UNL     1       1.313   0.784  -0.278  1.00  0.00    -0.335 N 
ATOM      4  H   UNL     1       1.106   1.595   0.292  1.00  0.00    +0.165 HD
ENDROOT
BRANCH   1   5
ATOM      5  N   UNL     1      -0.982   0.693  -0.777  1.00  0.00    -0.177 N 
BRANCH   5   6
ATOM      6  N   UNL     1      -1.069   2.151  -0.453  1.00  0.00    +0.061 NA
ATOM      7  O   UNL     1      -2.204   2.621  -0.571  1.00  0.00    -0.125 OA
ENDBRANCH   5   6
BRANCH   5   8
ATOM      8  C   UNL     1      -2.166  -0.044  -1.207  1.00  0.00    +0.169 C 
BRANCH   8   9
ATOM      9  C   UNL     1      -2.689  -1.018  -0.153  1.00  0.00    +0.133 C 
ATOM     10 Cl   UNL     1      -3.349  -0.173   1.269  1.00  0.00    -0.125 Cl
ENDBRANCH   8   9
ENDBRANCH   5   8
ENDBRANCH   1   5
BRANCH   3  11
ATOM     11  C   UNL     1       2.621   0.180  -0.083  1.00  0.00    +0.134 C 
BRANCH  11  12
ATOM     12  C   UNL     1       2.718  -0.666   1.185  1.00  0.00    +0.131 C 
ATOM     13 Cl   UNL     1       2.478   0.340   2.640  1.00  0.00    -0.125 Cl
ENDBRANCH  11  12
ENDBRANCH   3  11
TORSDOF 6
