REMARK SMILES COc1cc2c(Nc3ccc(Cl)c(F)c3)ncnc2cc1OCC1CCN(C)CC1
REMARK SMILES IDX 3 1 4 2 5 3 6 4 16 5 17 6 18 7 19 8 20 9 21 10 2 11 1 12
REMARK SMILES IDX 22 13 23 14 24 15 25 16 30 17 26 18 29 19 27 20 28 21 7 22
REMARK SMILES IDX 8 24 9 25 15 26 10 27 13 28 11 29 14 30 12 31
REMARK H PARENT 7 23
ROOT
ATOM      1  C   UNL     1      -0.565  -1.520  -1.391  1.00  0.00    +0.161 A 
ATOM      2  C   UNL     1      -1.806  -0.979  -0.992  1.00  0.00    +0.064 A 
ATOM      3  C   UNL     1      -2.025  -0.603   0.347  1.00  0.00    +0.047 A 
ATOM      4  C   UNL     1      -3.249  -0.066   0.813  1.00  0.00    +0.141 A 
ATOM      5  N   UNL     1      -3.362   0.286   2.124  1.00  0.00    -0.219 NA
ATOM      6  C   UNL     1      -2.332   0.146   2.993  1.00  0.00    +0.224 A 
ATOM      7  N   UNL     1      -1.153  -0.369   2.568  1.00  0.00    -0.236 NA
ATOM      8  C   UNL     1      -0.974  -0.746   1.276  1.00  0.00    +0.080 A 
ATOM      9  C   UNL     1       0.256  -1.274   0.878  1.00  0.00    +0.079 A 
ATOM     10  C   UNL     1       0.470  -1.660  -0.456  1.00  0.00    +0.163 A 
ENDROOT
BRANCH   1  11
ATOM     11  O   UNL     1      -0.323  -1.933  -2.712  1.00  0.00    -0.493 OA
ATOM     12  C   UNL     1      -1.291  -1.911  -3.757  1.00  0.00    +0.278 C 
ENDBRANCH   1  11
BRANCH  10  13
ATOM     13  O   UNL     1       1.691  -2.199  -0.897  1.00  0.00    -0.489 OA
BRANCH  13  14
ATOM     14  C   UNL     1       2.879  -2.336  -0.115  1.00  0.00    +0.233 C 
BRANCH  14  15
ATOM     15  C   UNL     1       3.583  -0.979   0.082  1.00  0.00    +0.029 C 
ATOM     16  C   UNL     1       4.854  -1.159   0.932  1.00  0.00    +0.022 C 
ATOM     17  C   UNL     1       3.938  -0.337  -1.273  1.00  0.00    +0.022 C 
ATOM     18  C   UNL     1       5.618   0.163   1.051  1.00  0.00    +0.084 C 
ATOM     19  C   UNL     1       4.739   0.953  -1.063  1.00  0.00    +0.084 C 
ATOM     20  N   UNL     1       5.965   0.673  -0.290  1.00  0.00    -0.306 NA
ATOM     21  C   UNL     1       6.772   1.897  -0.167  1.00  0.00    +0.105 C 
ENDBRANCH  14  15
ENDBRANCH  13  14
ENDBRANCH  10  13
BRANCH   4  22
ATOM     22  N   UNL     1      -4.402   0.043  -0.039  1.00  0.00    -0.340 N 
ATOM     23  H   UNL     1      -4.555  -0.685  -0.772  1.00  0.00    +0.168 HD
BRANCH  22  24
ATOM     24  C   UNL     1      -5.485   0.947   0.236  1.00  0.00    +0.043 A 
ATOM     25  C   UNL     1      -6.801   0.562  -0.056  1.00  0.00    +0.028 A 
ATOM     26  C   UNL     1      -5.247   2.222   0.778  1.00  0.00    +0.067 A 
ATOM     27  C   UNL     1      -7.868   1.424   0.225  1.00  0.00    +0.026 A 
ATOM     28  C   UNL     1      -6.317   3.077   1.059  1.00  0.00    +0.143 A 
ATOM     29  C   UNL     1      -7.630   2.677   0.792  1.00  0.00    +0.076 A 
ATOM     30  F   UNL     1      -6.073   4.304   1.582  1.00  0.00    -0.205 F 
ATOM     31 Cl   UNL     1      -8.980   3.740   1.162  1.00  0.00    -0.081 Cl
ENDBRANCH  22  24
ENDBRANCH   4  22
TORSDOF 6
