REMARK SMILES COc1cc2c(Nc3ccc(F)c(C)c3)ncnc2cc1OCC1CCN(C)CC1
REMARK SMILES IDX 3 1 4 2 5 3 6 4 16 5 17 6 18 7 19 8 20 9 21 10 2 11 1 12
REMARK SMILES IDX 22 13 23 14 24 15 25 16 30 17 26 18 29 19 27 20 28 21 7 22
REMARK SMILES IDX 8 24 9 25 15 26 10 27 13 28 11 29 14 30 12 31
REMARK H PARENT 7 23
ROOT
ATOM      1  C   UNL     1       0.031   0.235   1.408  1.00  0.00    +0.161 A 
ATOM      2  C   UNL     1       1.386   0.394   1.053  1.00  0.00    +0.064 A 
ATOM      3  C   UNL     1       1.848  -0.017  -0.213  1.00  0.00    +0.047 A 
ATOM      4  C   UNL     1       3.187   0.148  -0.646  1.00  0.00    +0.141 A 
ATOM      5  N   UNL     1       3.539  -0.300  -1.882  1.00  0.00    -0.219 NA
ATOM      6  C   UNL     1       2.651  -0.904  -2.707  1.00  0.00    +0.224 A 
ATOM      7  N   UNL     1       1.362  -1.057  -2.321  1.00  0.00    -0.236 NA
ATOM      8  C   UNL     1       0.940  -0.631  -1.104  1.00  0.00    +0.080 A 
ATOM      9  C   UNL     1      -0.400  -0.796  -0.747  1.00  0.00    +0.079 A 
ATOM     10  C   UNL     1      -0.862  -0.356   0.505  1.00  0.00    +0.163 A 
ENDROOT
BRANCH   1  11
ATOM     11  O   UNL     1      -0.469   0.654   2.652  1.00  0.00    -0.493 OA
ATOM     12  C   UNL     1       0.300   1.310   3.656  1.00  0.00    +0.278 C 
ENDBRANCH   1  11
BRANCH  10  13
ATOM     13  O   UNL     1      -2.208  -0.480   0.887  1.00  0.00    -0.489 OA
BRANCH  13  14
ATOM     14  C   UNL     1      -3.244  -1.017   0.066  1.00  0.00    +0.233 C 
BRANCH  14  15
ATOM     15  C   UNL     1      -4.605  -0.843   0.763  1.00  0.00    +0.029 C 
ATOM     16  C   UNL     1      -5.698  -1.648   0.019  1.00  0.00    +0.022 C 
ATOM     17  C   UNL     1      -4.987   0.653   0.897  1.00  0.00    +0.022 C 
ATOM     18  C   UNL     1      -7.093  -1.062   0.285  1.00  0.00    +0.084 C 
ATOM     19  C   UNL     1      -5.938   1.089  -0.223  1.00  0.00    +0.084 C 
ATOM     20  N   UNL     1      -7.219   0.345  -0.177  1.00  0.00    -0.306 NA
ATOM     21  C   UNL     1      -7.909   0.424  -1.475  1.00  0.00    +0.105 C 
ENDBRANCH  14  15
ENDBRANCH  13  14
ENDBRANCH  10  13
BRANCH   4  22
ATOM     22  N   UNL     1       4.168   0.833   0.158  1.00  0.00    -0.340 N 
ATOM     23  H   UNL     1       3.848   1.595   0.796  1.00  0.00    +0.168 HD
BRANCH  22  24
ATOM     24  C   UNL     1       5.587   0.717  -0.057  1.00  0.00    +0.040 A 
ATOM     25  C   UNL     1       6.410   1.830   0.176  1.00  0.00    +0.029 A 
ATOM     26  C   UNL     1       6.172  -0.497  -0.466  1.00  0.00    +0.032 A 
ATOM     27  C   UNL     1       7.788   1.750  -0.048  1.00  0.00    +0.041 A 
ATOM     28  C   UNL     1       7.558  -0.585  -0.683  1.00  0.00    -0.013 A 
ATOM     29  C   UNL     1       8.363   0.554  -0.493  1.00  0.00    +0.126 A 
ATOM     30  C   UNL     1       8.146  -1.879  -1.168  1.00  0.00    +0.047 C 
ATOM     31  F   UNL     1       9.703   0.509  -0.724  1.00  0.00    -0.207 F 
ENDBRANCH  22  24
ENDBRANCH   4  22
TORSDOF 6
