REMARK SMILES COc1cc2c(Oc3ccc4[nH]c(C)cc4c3F)ncnc2cc1OCCCN1CCCC1
REMARK SMILES IDX 25 1 24 2 3 3 4 4 5 5 23 6 6 7 22 8 19 9 21 10 20 11 2 12
REMARK SMILES IDX 1 13 7 14 8 15 9 16 17 17 10 18 16 19 11 20 15 21 12 22
REMARK SMILES IDX 13 23 18 24 14 26 26 27 27 28 28 29 29 30 30 31 33 32 31 33
REMARK SMILES IDX 32 34
REMARK H PARENT 12 25
ROOT
ATOM      1  O   UNL     1       3.254  -1.979   1.821  1.00  0.00    -0.490 OA
ENDROOT
BRANCH   1   2
ATOM      2  C   UNL     1       1.943  -1.582   1.731  1.00  0.00    +0.163 A 
ATOM      3  C   UNL     1       0.904  -2.441   1.353  1.00  0.00    +0.161 A 
ATOM      4  C   UNL     1      -0.391  -1.925   1.321  1.00  0.00    +0.066 A 
ATOM      5  C   UNL     1      -0.645  -0.575   1.680  1.00  0.00    +0.067 A 
ATOM      6  C   UNL     1       1.682  -0.260   2.105  1.00  0.00    +0.079 A 
ATOM      7  C   UNL     1      -1.903   0.033   1.676  1.00  0.00    +0.230 A 
ATOM      8  C   UNL     1       0.399   0.264   2.077  1.00  0.00    +0.081 A 
ATOM      9  N   UNL     1      -2.136   1.310   2.042  1.00  0.00    -0.201 NA
ATOM     10  N   UNL     1       0.205   1.542   2.431  1.00  0.00    -0.236 NA
ATOM     11  C   UNL     1      -1.052   2.004   2.392  1.00  0.00    +0.226 A 
BRANCH   3  12
ATOM     12  O   UNL     1       1.242  -3.732   1.055  1.00  0.00    -0.493 OA
ATOM     13  C   UNL     1       0.194  -4.619   0.687  1.00  0.00    +0.278 C 
ENDBRANCH   3  12
BRANCH   7  14
ATOM     14  O   UNL     1      -2.997  -0.762   1.343  1.00  0.00    -0.435 OA
BRANCH  14  15
ATOM     15  C   UNL     1      -4.035  -0.111   0.717  1.00  0.00    +0.165 A 
ATOM     16  C   UNL     1      -5.266  -0.063   1.369  1.00  0.00    +0.052 A 
ATOM     17  C   UNL     1      -3.884   0.417  -0.570  1.00  0.00    +0.175 A 
ATOM     18  C   UNL     1      -6.370   0.550   0.766  1.00  0.00    +0.031 A 
ATOM     19  C   UNL     1      -4.979   1.037  -1.198  1.00  0.00    +0.039 A 
ATOM     20  C   UNL     1      -6.196   1.092  -0.515  1.00  0.00    +0.049 A 
ATOM     21  C   UNL     1      -5.178   1.667  -2.458  1.00  0.00    +0.034 A 
ATOM     22  N   UNL     1      -7.090   1.742  -1.336  1.00  0.00    -0.359 N 
ATOM     23  C   UNL     1      -6.488   2.095  -2.520  1.00  0.00    +0.013 A 
ATOM     24  F   UNL     1      -2.708   0.313  -1.210  1.00  0.00    -0.202 F 
ATOM     25  H   UNL     1      -8.054   1.929  -1.096  1.00  0.00    +0.166 HD
ATOM     26  C   UNL     1      -7.227   2.808  -3.589  1.00  0.00    +0.064 C 
ENDBRANCH  14  15
ENDBRANCH   7  14
ENDBRANCH   1   2
BRANCH   1  27
ATOM     27  C   UNL     1       3.786  -2.376   0.549  1.00  0.00    +0.231 C 
BRANCH  27  28
ATOM     28  C   UNL     1       5.241  -1.917   0.455  1.00  0.00    +0.057 C 
BRANCH  28  29
ATOM     29  C   UNL     1       5.401  -0.392   0.504  1.00  0.00    +0.088 C 
BRANCH  29  30
ATOM     30  N   UNL     1       4.704   0.296  -0.585  1.00  0.00    -0.303 NA
ATOM     31  C   UNL     1       5.310   0.088  -1.900  1.00  0.00    +0.084 C 
ATOM     32  C   UNL     1       4.694   1.749  -0.400  1.00  0.00    +0.084 C 
ATOM     33  C   UNL     1       4.694   1.191  -2.750  1.00  0.00    +0.017 C 
ATOM     34  C   UNL     1       4.244   2.258  -1.759  1.00  0.00    +0.017 C 
ENDBRANCH  29  30
ENDBRANCH  28  29
ENDBRANCH  27  28
ENDBRANCH   1  27
TORSDOF 8
