REMARK SMILES COc1cc2c(Oc3ccc4[nH]c(C)cc4c3F)ncnc2cc1OCCCN1CCCC1
REMARK SMILES IDX 25 1 24 2 3 3 4 4 5 5 23 6 6 7 22 8 19 9 21 10 20 11 2 12
REMARK SMILES IDX 1 13 7 14 8 15 9 16 17 17 10 18 16 19 11 20 15 21 12 22
REMARK SMILES IDX 13 23 18 24 14 26 26 27 27 28 28 29 29 30 30 31 33 32 31 33
REMARK SMILES IDX 32 34
REMARK H PARENT 12 25
ROOT
ATOM      1  O   UNL     1       2.469   0.309  -0.835  1.00  0.00    -0.490 OA
ENDROOT
BRANCH   1   2
ATOM      2  C   UNL     1       1.149   0.519  -0.524  1.00  0.00    +0.163 A 
ATOM      3  C   UNL     1       0.270   0.636  -1.615  1.00  0.00    +0.161 A 
ATOM      4  C   UNL     1      -1.086   0.855  -1.372  1.00  0.00    +0.066 A 
ATOM      5  C   UNL     1      -1.573   0.955  -0.047  1.00  0.00    +0.067 A 
ATOM      6  C   UNL     1       0.647   0.619   0.780  1.00  0.00    +0.079 A 
ATOM      7  C   UNL     1      -2.907   1.169   0.306  1.00  0.00    +0.230 A 
ATOM      8  C   UNL     1      -0.701   0.835   1.037  1.00  0.00    +0.081 A 
ATOM      9  N   UNL     1      -3.354   1.283   1.573  1.00  0.00    -0.201 NA
ATOM     10  N   UNL     1      -1.113   0.924   2.308  1.00  0.00    -0.236 NA
ATOM     11  C   UNL     1      -2.421   1.140   2.515  1.00  0.00    +0.226 A 
BRANCH   3  12
ATOM     12  O   UNL     1       0.831   0.529  -2.861  1.00  0.00    -0.493 OA
ATOM     13  C   UNL     1      -0.042   0.532  -3.982  1.00  0.00    +0.278 C 
ENDBRANCH   3  12
BRANCH   7  14
ATOM     14  O   UNL     1      -3.823   1.350  -0.729  1.00  0.00    -0.435 OA
BRANCH  14  15
ATOM     15  C   UNL     1      -5.098   0.897  -0.480  1.00  0.00    +0.165 A 
ATOM     16  C   UNL     1      -6.135   1.828  -0.489  1.00  0.00    +0.052 A 
ATOM     17  C   UNL     1      -5.360  -0.466  -0.302  1.00  0.00    +0.175 A 
ATOM     18  C   UNL     1      -7.460   1.425  -0.284  1.00  0.00    +0.031 A 
ATOM     19  C   UNL     1      -6.683  -0.897  -0.094  1.00  0.00    +0.039 A 
ATOM     20  C   UNL     1      -7.702   0.058  -0.087  1.00  0.00    +0.049 A 
ATOM     21  C   UNL     1      -7.295  -2.163   0.121  1.00  0.00    +0.034 A 
ATOM     22  N   UNL     1      -8.883  -0.614   0.135  1.00  0.00    -0.359 N 
ATOM     23  C   UNL     1      -8.653  -1.963   0.261  1.00  0.00    +0.013 A 
ATOM     24  F   UNL     1      -4.360  -1.360  -0.351  1.00  0.00    -0.202 F 
ATOM     25  H   UNL     1      -9.790  -0.171   0.193  1.00  0.00    +0.166 HD
ATOM     26  C   UNL     1      -9.756  -2.924   0.503  1.00  0.00    +0.064 C 
ENDBRANCH  14  15
ENDBRANCH   7  14
ENDBRANCH   1   2
BRANCH   1  27
ATOM     27  C   UNL     1       3.397   0.175   0.240  1.00  0.00    +0.231 C 
BRANCH  27  28
ATOM     28  C   UNL     1       4.783  -0.055  -0.359  1.00  0.00    +0.057 C 
BRANCH  28  29
ATOM     29  C   UNL     1       5.843  -0.173   0.737  1.00  0.00    +0.088 C 
BRANCH  29  30
ATOM     30  N   UNL     1       7.167  -0.497   0.202  1.00  0.00    -0.303 NA
ATOM     31  C   UNL     1       7.750   0.565  -0.621  1.00  0.00    +0.084 C 
ATOM     32  C   UNL     1       8.147  -0.728   1.266  1.00  0.00    +0.084 C 
ATOM     33  C   UNL     1       9.229   0.204  -0.679  1.00  0.00    +0.017 C 
ATOM     34  C   UNL     1       9.468  -0.710   0.517  1.00  0.00    +0.017 C 
ENDBRANCH  29  30
ENDBRANCH  28  29
ENDBRANCH  27  28
ENDBRANCH   1  27
TORSDOF 8
