REMARK SMILES O=C(Nc1c(F)cc(I)c(F)c1Nc1ccc(F)c(I)c1)C1(O)CCNCC1
REMARK SMILES IDX 4 1 5 2 6 3 7 4 8 5 9 6 10 7 11 8 12 9 3 10 2 11 1 12 22 14
REMARK SMILES IDX 24 15 28 16 25 17 27 18 26 19 23 21 13 23 14 25 15 26 21 27
REMARK SMILES IDX 16 28 19 29 17 30 20 31 18 32
REMARK H PARENT 3 13 26 20 23 22 13 24
ROOT
ATOM      1  C   UNL     1       0.512  -2.536   0.245  1.00  0.00    +0.104 A 
ATOM      2  C   UNL     1       0.471  -3.907  -0.041  1.00  0.00    +0.150 A 
ATOM      3  F   UNL     1      -0.719  -4.554  -0.130  1.00  0.00    -0.205 F 
ATOM      4  C   UNL     1       1.656  -4.615  -0.267  1.00  0.00    +0.059 A 
ATOM      5  C   UNL     1       2.891  -3.964  -0.197  1.00  0.00    +0.054 A 
ATOM      6  I   UNL     1       4.669  -5.068  -0.512  1.00  0.00    -0.041 I 
ATOM      7  C   UNL     1       2.945  -2.600   0.113  1.00  0.00    +0.162 A 
ATOM      8  F   UNL     1       4.150  -1.982   0.227  1.00  0.00    -0.203 F 
ATOM      9  C   UNL     1       1.759  -1.881   0.342  1.00  0.00    +0.103 A 
ENDROOT
BRANCH   1  10
ATOM     10  N   UNL     1      -0.713  -1.812   0.433  1.00  0.00    -0.319 N 
ATOM     11  C   UNL     1      -1.006  -0.621  -0.313  1.00  0.00    +0.256 C 
ATOM     12  O   UNL     1      -0.409  -0.407  -1.406  1.00  0.00    -0.271 OA
ATOM     13  H   UNL     1      -1.464  -2.231   1.035  1.00  0.00    +0.170 HD
BRANCH  11  14
ATOM     14  C   UNL     1      -2.082   0.338   0.159  1.00  0.00    +0.145 C 
ATOM     15  C   UNL     1      -3.447  -0.091  -0.441  1.00  0.00    +0.061 C 
ATOM     16  C   UNL     1      -1.756   1.791  -0.273  1.00  0.00    +0.061 C 
ATOM     17  C   UNL     1      -4.394   1.102  -0.696  1.00  0.00    +0.084 C 
ATOM     18  C   UNL     1      -2.849   2.779   0.192  1.00  0.00    +0.084 C 
ATOM     19  N   UNL     1      -4.194   2.173   0.287  1.00  0.00    -0.316 NA
ATOM     20  H   UNL     1      -4.330   1.780   1.250  1.00  0.00    +0.122 HD
BRANCH  14  21
ATOM     21  O   UNL     1      -2.170   0.281   1.565  1.00  0.00    -0.380 OA
ATOM     22  H   UNL     1      -1.297   0.572   1.938  1.00  0.00    +0.212 HD
ENDBRANCH  14  21
ENDBRANCH  11  14
ENDBRANCH   1  10
BRANCH   9  23
ATOM     23  N   UNL     1       1.821  -0.519   0.791  1.00  0.00    -0.351 N 
ATOM     24  H   UNL     1       1.343  -0.293   1.693  1.00  0.00    +0.167 HD
BRANCH  23  25
ATOM     25  C   UNL     1       2.348   0.565   0.009  1.00  0.00    +0.040 A 
ATOM     26  C   UNL     1       2.446   1.839   0.589  1.00  0.00    +0.029 A 
ATOM     27  C   UNL     1       2.704   0.396  -1.344  1.00  0.00    +0.043 A 
ATOM     28  C   UNL     1       2.901   2.926  -0.165  1.00  0.00    +0.042 A 
ATOM     29  C   UNL     1       3.147   1.488  -2.100  1.00  0.00    +0.051 A 
ATOM     30  C   UNL     1       3.246   2.754  -1.508  1.00  0.00    +0.136 A 
ATOM     31  I   UNL     1       3.625   1.207  -4.132  1.00  0.00    -0.041 I 
ATOM     32  F   UNL     1       3.678   3.819  -2.232  1.00  0.00    -0.206 F 
ENDBRANCH  23  25
ENDBRANCH   9  23
TORSDOF 5
