REMARK SMILES O=C(c1ccc(F)c(F)c1Nc1ccc(I)cc1F)N1CC(O)([C@@H]2CCCCN2)C1
REMARK SMILES IDX 3 1 4 2 5 3 6 4 7 5 8 6 9 7 10 8 2 9 1 10 20 11 21 12 30 13
REMARK SMILES IDX 22 14 23 15 24 17 25 18 29 19 26 20 28 21 27 22 11 24 12 26
REMARK SMILES IDX 13 27 18 28 14 29 17 30 15 31 19 32 16 33
REMARK H PARENT 23 16 29 23 11 25
ROOT
ATOM      1  C   UNL     1       1.645  -0.103  -1.926  1.00  0.00    +0.066 A 
ATOM      2  C   UNL     1       1.157   0.733  -2.947  1.00  0.00    +0.019 A 
ATOM      3  C   UNL     1       1.959   1.752  -3.459  1.00  0.00    +0.043 A 
ATOM      4  C   UNL     1       3.244   1.925  -2.958  1.00  0.00    +0.161 A 
ATOM      5  F   UNL     1       4.011   2.903  -3.459  1.00  0.00    -0.204 F 
ATOM      6  C   UNL     1       3.740   1.089  -1.961  1.00  0.00    +0.183 A 
ATOM      7  F   UNL     1       5.001   1.272  -1.538  1.00  0.00    -0.201 F 
ATOM      8  C   UNL     1       2.961   0.046  -1.431  1.00  0.00    +0.091 A 
ENDROOT
BRANCH   1   9
ATOM      9  C   UNL     1       0.773  -1.176  -1.378  1.00  0.00    +0.256 C 
ATOM     10  O   UNL     1       1.258  -2.275  -1.122  1.00  0.00    -0.269 OA
ATOM     11  N   UNL     1      -0.557  -0.871  -1.163  1.00  0.00    -0.333 N 
ATOM     12  C   UNL     1      -1.444  -1.693  -0.329  1.00  0.00    +0.158 C 
ATOM     13  C   UNL     1      -1.087   0.381  -0.609  1.00  0.00    +0.158 C 
ATOM     14  C   UNL     1      -2.350  -0.435  -0.211  1.00  0.00    +0.115 C 
BRANCH  14  15
ATOM     15  O   UNL     1      -3.435  -0.374  -1.182  1.00  0.00    -0.385 OA
ATOM     16  H   UNL     1      -3.028  -0.646  -2.023  1.00  0.00    +0.211 HD
ENDBRANCH  14  15
BRANCH  14  17
ATOM     17  C   UNL     1      -2.847  -0.149   1.231  1.00  0.00    +0.089 C 
ATOM     18  C   UNL     1      -3.810  -1.236   1.743  1.00  0.00    +0.022 C 
ATOM     19  N   UNL     1      -3.392   1.209   1.427  1.00  0.00    -0.311 NA
ATOM     20  C   UNL     1      -5.249  -1.055   1.272  1.00  0.00    +0.003 C 
ATOM     21  C   UNL     1      -4.758   1.391   0.943  1.00  0.00    +0.081 C 
ATOM     22  C   UNL     1      -5.721   0.367   1.533  1.00  0.00    +0.015 C 
ATOM     23  H   UNL     1      -2.787   1.908   1.001  1.00  0.00    +0.123 HD
ENDBRANCH  14  17
ENDBRANCH   1   9
BRANCH   8  24
ATOM     24  N   UNL     1       3.448  -0.792  -0.400  1.00  0.00    -0.350 N 
ATOM     25  H   UNL     1       2.971  -1.699  -0.367  1.00  0.00    +0.167 HD
BRANCH  24  26
ATOM     26  C   UNL     1       4.073  -0.450   0.817  1.00  0.00    +0.075 A 
ATOM     27  C   UNL     1       4.776  -1.455   1.500  1.00  0.00    +0.030 A 
ATOM     28  C   UNL     1       4.088   0.842   1.364  1.00  0.00    +0.147 A 
ATOM     29  C   UNL     1       5.460  -1.178   2.689  1.00  0.00    +0.017 A 
ATOM     30  C   UNL     1       4.766   1.130   2.549  1.00  0.00    +0.056 A 
ATOM     31  C   UNL     1       5.453   0.116   3.207  1.00  0.00    +0.016 A 
ATOM     32  F   UNL     1       3.394   1.837   0.789  1.00  0.00    -0.205 F 
ATOM     33  I   UNL     1       6.467   0.529   4.972  1.00  0.00    -0.044 I 
ENDBRANCH  24  26
ENDBRANCH   8  24
TORSDOF 5
