REMARK SMILES CC(C)(C)c1nc(-c2c[nH]c3ncc(F)cc23)nc(S(=O)(=O)Nc2c(F)cccc2F)n1
REMARK SMILES IDX 20 1 21 2 22 3 19 4 5 5 6 6 32 7 7 8 18 9 2 10 1 11 3 12
REMARK SMILES IDX 4 13 8 14 9 15 17 16 10 17 16 18 11 19 14 20 12 21 13 22
REMARK SMILES IDX 15 24 23 25 24 27 25 28 30 29 27 30 29 31 28 32 26 33 31 34
REMARK H PARENT 10 23 23 26
ROOT
ATOM      1  S   UNL     1       2.688  -2.026   1.314  1.00  0.00    +0.298 S 
ATOM      2  O   UNL     1       3.187  -1.333   2.551  1.00  0.00    -0.198 OA
ATOM      3  O   UNL     1       2.644  -3.504   1.575  1.00  0.00    -0.198 OA
ENDROOT
BRANCH   1   4
ATOM      4  C   UNL     1       1.084  -1.454   0.917  1.00  0.00    +0.271 A 
ATOM      5  C   UNL     1      -0.993  -1.796  -0.142  1.00  0.00    +0.139 A 
ATOM      6  N   UNL     1      -1.354  -0.528   0.190  1.00  0.00    -0.212 NA
ATOM      7  N   UNL     1       0.237  -2.250   0.219  1.00  0.00    -0.201 NA
ATOM      8  C   UNL     1      -0.507   0.279   0.878  1.00  0.00    +0.166 A 
ATOM      9  N   UNL     1       0.716  -0.188   1.236  1.00  0.00    -0.196 NA
BRANCH   5  10
ATOM     10  C   UNL     1      -1.946  -2.663  -0.947  1.00  0.00    +0.022 C 
ATOM     11  C   UNL     1      -1.359  -4.071  -1.190  1.00  0.00    +0.019 C 
ATOM     12  C   UNL     1      -3.272  -2.806  -0.178  1.00  0.00    +0.019 C 
ATOM     13  C   UNL     1      -2.205  -1.987  -2.309  1.00  0.00    +0.019 C 
ENDBRANCH   5  10
BRANCH   8  14
ATOM     14  C   UNL     1      -0.895   1.661   1.219  1.00  0.00    +0.046 A 
ATOM     15  C   UNL     1      -0.094   2.597   1.875  1.00  0.00    +0.097 A 
ATOM     16  C   UNL     1      -2.090   2.314   0.958  1.00  0.00    +0.033 A 
ATOM     17  N   UNL     1      -0.750   3.773   2.014  1.00  0.00    -0.345 N 
ATOM     18  C   UNL     1      -3.273   1.916   0.334  1.00  0.00    +0.053 A 
ATOM     19  C   UNL     1      -1.954   3.583   1.453  1.00  0.00    +0.138 A 
ATOM     20  C   UNL     1      -4.304   2.865   0.230  1.00  0.00    +0.142 A 
ATOM     21  N   UNL     1      -2.942   4.508   1.356  1.00  0.00    -0.235 NA
ATOM     22  C   UNL     1      -4.118   4.165   0.750  1.00  0.00    +0.152 A 
ATOM     23  H   UNL     1      -0.390   4.645   2.462  1.00  0.00    +0.167 HD
ATOM     24  F   UNL     1      -5.473   2.530  -0.371  1.00  0.00    -0.205 F 
ENDBRANCH   8  14
ENDBRANCH   1   4
BRANCH   1  25
ATOM     25  N   UNL     1       3.734  -1.704  -0.028  1.00  0.00    -0.271 N 
ATOM     26  H   UNL     1       3.741  -2.412  -0.795  1.00  0.00    +0.180 HD
BRANCH  25  27
ATOM     27  C   UNL     1       4.060  -0.351  -0.357  1.00  0.00    +0.120 A 
ATOM     28  C   UNL     1       3.480   0.256  -1.483  1.00  0.00    +0.150 A 
ATOM     29  C   UNL     1       4.955   0.380   0.442  1.00  0.00    +0.150 A 
ATOM     30  C   UNL     1       3.782   1.585  -1.798  1.00  0.00    +0.042 A 
ATOM     31  C   UNL     1       5.255   1.707   0.120  1.00  0.00    +0.042 A 
ATOM     32  C   UNL     1       4.666   2.312  -0.994  1.00  0.00    +0.006 A 
ATOM     33  F   UNL     1       2.607  -0.435  -2.261  1.00  0.00    -0.205 F 
ATOM     34  F   UNL     1       5.560  -0.198   1.508  1.00  0.00    -0.205 F 
ENDBRANCH  25  27
ENDBRANCH   1  25
TORSDOF 5
