REMARK SMILES CC(C)(C)c1nc(-c2cccc(NS(=O)(=O)c3c(F)cccc3F)c2F)c(-c2ccnc(N)n2)s1
REMARK SMILES IDX 8 1 9 2 10 3 11 4 12 5 25 6 26 7 7 8 5 9 6 10 35 11 27 12
REMARK SMILES IDX 2 13 1 14 3 15 4 16 28 17 29 18 34 19 30 20 32 21 31 22
REMARK SMILES IDX 33 23 13 26 14 28 15 29 16 30 17 31 18 32 23 33 20 34 22 35
REMARK SMILES IDX 21 36 19 37 24 38
REMARK H PARENT 33 24 33 25 13 27
ROOT
ATOM      1  C   UNL     1      -0.006  -1.278   0.192  1.00  0.00    +0.040 A 
ATOM      2  C   UNL     1       0.723  -2.015   1.131  1.00  0.00    +0.013 A 
ATOM      3  C   UNL     1       1.962  -2.562   0.789  1.00  0.00    +0.003 A 
ATOM      4  C   UNL     1       2.480  -2.384  -0.497  1.00  0.00    +0.030 A 
ATOM      5  C   UNL     1       1.772  -1.640  -1.440  1.00  0.00    +0.085 A 
ATOM      6  C   UNL     1       0.523  -1.109  -1.091  1.00  0.00    +0.156 A 
ATOM      7  F   UNL     1      -0.174  -0.443  -2.030  1.00  0.00    -0.204 F 
ENDROOT
BRANCH   1   8
ATOM      8  C   UNL     1      -1.318  -0.765   0.546  1.00  0.00    +0.094 A 
ATOM      9  C   UNL     1      -3.404  -0.986   1.288  1.00  0.00    +0.099 A 
ATOM     10  N   UNL     1      -2.278  -1.628   1.054  1.00  0.00    -0.240 NA
ATOM     11  S   UNL     1      -3.353   0.699   0.919  1.00  0.00    -0.116 S 
ATOM     12  C   UNL     1      -1.712   0.556   0.431  1.00  0.00    +0.081 A 
BRANCH   9  13
ATOM     13  C   UNL     1      -4.664  -1.647   1.841  1.00  0.00    +0.014 C 
ATOM     14  C   UNL     1      -4.406  -3.152   2.073  1.00  0.00    +0.018 C 
ATOM     15  C   UNL     1      -5.060  -1.021   3.190  1.00  0.00    +0.018 C 
ATOM     16  C   UNL     1      -5.829  -1.515   0.843  1.00  0.00    +0.018 C 
ENDBRANCH   9  13
BRANCH  12  17
ATOM     17  C   UNL     1      -0.971   1.747   0.036  1.00  0.00    +0.088 A 
ATOM     18  C   UNL     1      -1.335   2.516  -1.047  1.00  0.00    +0.050 A 
ATOM     19  N   UNL     1       0.083   2.033   0.827  1.00  0.00    -0.212 NA
ATOM     20  C   UNL     1      -0.552   3.619  -1.268  1.00  0.00    +0.117 A 
ATOM     21  C   UNL     1       0.773   3.131   0.524  1.00  0.00    +0.220 A 
ATOM     22  N   UNL     1       0.495   3.953  -0.492  1.00  0.00    -0.222 NA
BRANCH  21  23
ATOM     23  N   UNL     1       1.824   3.473   1.350  1.00  0.00    -0.368 N 
ATOM     24  H   UNL     1       1.952   4.475   1.328  1.00  0.00    +0.159 HD
ATOM     25  H   UNL     1       1.684   3.051   2.258  1.00  0.00    +0.159 HD
ENDBRANCH  21  23
ENDBRANCH  12  17
ENDBRANCH   1   8
BRANCH   5  26
ATOM     26  N   UNL     1       2.207  -1.492  -2.796  1.00  0.00    -0.276 N 
ATOM     27  H   UNL     1       1.550  -1.030  -3.431  1.00  0.00    +0.180 HD
BRANCH  26  28
ATOM     28  S   UNL     1       3.803  -1.112  -3.179  1.00  0.00    +0.267 S 
ATOM     29  O   UNL     1       3.812  -0.745  -4.580  1.00  0.00    -0.201 OA
ATOM     30  O   UNL     1       4.647  -2.186  -2.704  1.00  0.00    -0.201 OA
BRANCH  28  31
ATOM     31  C   UNL     1       4.121   0.342  -2.263  1.00  0.00    +0.158 A 
ATOM     32  C   UNL     1       3.317   1.454  -2.477  1.00  0.00    +0.146 A 
ATOM     33  C   UNL     1       5.168   0.418  -1.356  1.00  0.00    +0.146 A 
ATOM     34  C   UNL     1       3.554   2.643  -1.792  1.00  0.00    +0.041 A 
ATOM     35  C   UNL     1       5.410   1.601  -0.659  1.00  0.00    +0.041 A 
ATOM     36  C   UNL     1       4.603   2.717  -0.877  1.00  0.00    +0.006 A 
ATOM     37  F   UNL     1       2.284   1.405  -3.331  1.00  0.00    -0.205 F 
ATOM     38  F   UNL     1       5.975  -0.622  -1.116  1.00  0.00    -0.205 F 
ENDBRANCH  28  31
ENDBRANCH  26  28
ENDBRANCH   5  26
TORSDOF 7
