REMARK SMILES CC(C)(C)c1nc(-c2c(F)c(F)cc(NS(=O)(=O)c3c(F)cccc3F)c2F)c(-c2ccnc(N)n2)s1
REMARK SMILES IDX 8 1 9 2 10 3 11 4 12 5 13 6 14 7 27 8 28 9 7 10 5 11 6 12
REMARK SMILES IDX 37 13 29 14 2 15 1 16 3 17 4 18 30 19 31 20 36 21 32 22
REMARK SMILES IDX 34 23 33 24 35 25 15 28 16 30 17 31 18 32 19 33 20 34 25 35
REMARK SMILES IDX 22 36 24 37 23 38 21 39 26 40
REMARK H PARENT 35 26 35 27 15 29
ROOT
ATOM      1  C   UNL     1      -0.299  -0.582  -0.891  1.00  0.00    +0.078 A 
ATOM      2  C   UNL     1       0.061  -0.062  -2.148  1.00  0.00    +0.171 A 
ATOM      3  F   UNL     1      -0.848   0.606  -2.917  1.00  0.00    -0.203 F 
ATOM      4  C   UNL     1       1.347  -0.277  -2.642  1.00  0.00    +0.161 A 
ATOM      5  F   UNL     1       1.694   0.234  -3.849  1.00  0.00    -0.204 F 
ATOM      6  C   UNL     1       2.284  -1.007  -1.900  1.00  0.00    +0.072 A 
ATOM      7  C   UNL     1       1.936  -1.550  -0.651  1.00  0.00    +0.088 A 
ATOM      8  C   UNL     1       0.637  -1.341  -0.159  1.00  0.00    +0.159 A 
ATOM      9  F   UNL     1       0.282  -1.861   1.046  1.00  0.00    -0.204 F 
ENDROOT
BRANCH   1  10
ATOM     10  C   UNL     1      -1.678  -0.428  -0.384  1.00  0.00    +0.097 A 
ATOM     11  C   UNL     1      -3.655  -1.171   0.418  1.00  0.00    +0.099 A 
ATOM     12  N   UNL     1      -2.397  -1.504   0.036  1.00  0.00    -0.240 NA
ATOM     13  S   UNL     1      -3.916   0.497   0.263  1.00  0.00    -0.116 S 
ATOM     14  C   UNL     1      -2.358   0.789  -0.318  1.00  0.00    +0.081 A 
BRANCH  11  15
ATOM     15  C   UNL     1      -4.643  -2.164   1.008  1.00  0.00    +0.014 C 
ATOM     16  C   UNL     1      -4.103  -3.606   0.897  1.00  0.00    +0.018 C 
ATOM     17  C   UNL     1      -4.845  -1.830   2.497  1.00  0.00    +0.018 C 
ATOM     18  C   UNL     1      -5.984  -2.068   0.261  1.00  0.00    +0.018 C 
ENDBRANCH  11  15
BRANCH  14  19
ATOM     19  C   UNL     1      -1.765   2.122  -0.506  1.00  0.00    +0.088 A 
ATOM     20  C   UNL     1      -2.360   3.067  -1.354  1.00  0.00    +0.050 A 
ATOM     21  N   UNL     1      -0.601   2.425   0.127  1.00  0.00    -0.212 NA
ATOM     22  C   UNL     1      -1.710   4.289  -1.541  1.00  0.00    +0.117 A 
ATOM     23  C   UNL     1      -0.007   3.635  -0.036  1.00  0.00    +0.220 A 
ATOM     24  N   UNL     1      -0.555   4.553  -0.874  1.00  0.00    -0.222 NA
BRANCH  23  25
ATOM     25  N   UNL     1       1.200   3.932   0.669  1.00  0.00    -0.368 N 
ATOM     26  H   UNL     1       1.638   3.213   1.289  1.00  0.00    +0.159 HD
ATOM     27  H   UNL     1       1.591   4.895   0.657  1.00  0.00    +0.159 HD
ENDBRANCH  23  25
ENDBRANCH  14  19
ENDBRANCH   1  10
BRANCH   7  28
ATOM     28  N   UNL     1       2.879  -2.309   0.123  1.00  0.00    -0.276 N 
ATOM     29  H   UNL     1       2.521  -2.929   0.883  1.00  0.00    +0.180 HD
BRANCH  28  30
ATOM     30  S   UNL     1       4.585  -2.005   0.069  1.00  0.00    +0.267 S 
ATOM     31  O   UNL     1       5.247  -2.752   1.191  1.00  0.00    -0.201 OA
ATOM     32  O   UNL     1       5.144  -2.513  -1.230  1.00  0.00    -0.201 OA
BRANCH  30  33
ATOM     33  C   UNL     1       4.880  -0.276   0.283  1.00  0.00    +0.158 A 
ATOM     34  C   UNL     1       4.625   0.312   1.537  1.00  0.00    +0.146 A 
ATOM     35  C   UNL     1       5.347   0.524  -0.774  1.00  0.00    +0.146 A 
ATOM     36  C   UNL     1       4.845   1.680   1.727  1.00  0.00    +0.041 A 
ATOM     37  C   UNL     1       5.540   1.893  -0.579  1.00  0.00    +0.041 A 
ATOM     38  C   UNL     1       5.312   2.466   0.670  1.00  0.00    +0.006 A 
ATOM     39  F   UNL     1       4.167  -0.433   2.574  1.00  0.00    -0.205 F 
ATOM     40  F   UNL     1       5.598  -0.013  -1.998  1.00  0.00    -0.205 F 
ENDBRANCH  30  33
ENDBRANCH  28  30
ENDBRANCH   7  28
TORSDOF 7
