REMARK SMILES COc1cc2ncnc(Nc3ccc(F)c(Cl)c3)c2cc1NC(=O)/C=C/CN1CCCCC1
REMARK SMILES IDX 3 1 4 2 5 3 6 4 7 5 8 6 9 7 19 8 20 9 21 10 2 11 1 12 22 13
REMARK SMILES IDX 23 14 24 15 25 17 26 18 27 19 28 20 29 21 33 22 30 23 32 24
REMARK SMILES IDX 31 25 10 26 11 28 12 29 18 30 13 31 16 32 14 33 17 34 15 35
REMARK H PARENT 22 16 10 27
ROOT
ATOM      1  C   UNL     1      -0.615  -2.176   0.606  1.00  0.00    +0.144 A 
ATOM      2  C   UNL     1      -1.722  -2.979   0.892  1.00  0.00    +0.077 A 
ATOM      3  C   UNL     1      -3.019  -2.481   0.855  1.00  0.00    +0.080 A 
ATOM      4  N   UNL     1      -4.021  -3.315   1.142  1.00  0.00    -0.236 NA
ATOM      5  C   UNL     1      -5.257  -2.809   1.088  1.00  0.00    +0.224 A 
ATOM      6  N   UNL     1      -5.582  -1.551   0.781  1.00  0.00    -0.219 NA
ATOM      7  C   UNL     1      -4.569  -0.710   0.505  1.00  0.00    +0.141 A 
ATOM      8  C   UNL     1      -3.225  -1.137   0.518  1.00  0.00    +0.045 A 
ATOM      9  C   UNL     1      -2.106  -0.320   0.215  1.00  0.00    +0.044 A 
ATOM     10  C   UNL     1      -0.809  -0.826   0.271  1.00  0.00    +0.084 A 
ENDROOT
BRANCH   1  11
ATOM     11  O   UNL     1       0.694  -2.598   0.626  1.00  0.00    -0.494 OA
ATOM     12  C   UNL     1       0.931  -3.966   0.937  1.00  0.00    +0.278 C 
ENDBRANCH   1  11
BRANCH  10  13
ATOM     13  N   UNL     1       0.342  -0.055  -0.003  1.00  0.00    -0.319 N 
ATOM     14  C   UNL     1       0.418   1.296  -0.236  1.00  0.00    +0.248 C 
ATOM     15  O   UNL     1      -0.497   2.109  -0.180  1.00  0.00    -0.270 OA
ATOM     16  H   UNL     1       1.208  -0.581   0.057  1.00  0.00    +0.170 HD
BRANCH  14  17
ATOM     17  C   UNL     1       1.795   1.793  -0.502  1.00  0.00    +0.068 C 
ATOM     18  C   UNL     1       2.744   1.096  -1.149  1.00  0.00    -0.006 C 
BRANCH  18  19
ATOM     19  C   UNL     1       4.120   1.626  -1.430  1.00  0.00    +0.112 C 
BRANCH  19  20
ATOM     20  N   UNL     1       5.150   0.734  -0.887  1.00  0.00    -0.300 NA
ATOM     21  C   UNL     1       6.472   1.055  -1.428  1.00  0.00    +0.085 C 
ATOM     22  C   UNL     1       5.158   0.732   0.589  1.00  0.00    +0.085 C 
ATOM     23  C   UNL     1       7.473  -0.052  -1.077  1.00  0.00    +0.016 C 
ATOM     24  C   UNL     1       6.509   0.347   1.209  1.00  0.00    +0.016 C 
ATOM     25  C   UNL     1       7.268  -0.630   0.325  1.00  0.00    +0.003 C 
ENDBRANCH  19  20
ENDBRANCH  18  19
ENDBRANCH  14  17
ENDBRANCH  10  13
BRANCH   7  26
ATOM     26  N   UNL     1      -4.856   0.646   0.186  1.00  0.00    -0.340 N 
ATOM     27  H   UNL     1      -4.258   1.254   0.739  1.00  0.00    +0.168 HD
BRANCH  26  28
ATOM     28  C   UNL     1      -6.098   1.249  -0.110  1.00  0.00    +0.041 A 
ATOM     29  C   UNL     1      -7.165   0.546  -0.687  1.00  0.00    +0.029 A 
ATOM     30  C   UNL     1      -6.238   2.636   0.067  1.00  0.00    +0.049 A 
ATOM     31  C   UNL     1      -8.360   1.191  -1.022  1.00  0.00    +0.043 A 
ATOM     32  C   UNL     1      -7.430   3.283  -0.268  1.00  0.00    +0.078 A 
ATOM     33  C   UNL     1      -8.488   2.556  -0.805  1.00  0.00    +0.141 A 
ATOM     34 Cl   UNL     1      -7.571   4.981  -0.014  1.00  0.00    -0.081 Cl
ATOM     35  F   UNL     1      -9.640   3.159  -1.134  1.00  0.00    -0.205 F 
ENDBRANCH  26  28
ENDBRANCH   7  26
TORSDOF 7
