REMARK SMILES COc1cc2c(Nc3ccc(Cl)c(F)c3)ncnc2cc1NC(=O)/C=C/CN1CCCCC1
REMARK SMILES IDX 3 1 4 2 5 3 6 4 16 5 17 6 18 7 19 8 20 9 21 10 2 11 1 12
REMARK SMILES IDX 22 13 23 14 24 15 25 17 26 18 27 19 28 20 29 21 33 22 30 23
REMARK SMILES IDX 32 24 31 25 7 26 8 28 9 29 15 30 10 31 13 32 11 33 14 34
REMARK SMILES IDX 12 35
REMARK H PARENT 22 16 7 27
ROOT
ATOM      1  C   UNL     1       1.350   0.174   0.624  1.00  0.00    +0.143 A 
ATOM      2  C   UNL     1       2.749   0.279   0.479  1.00  0.00    +0.063 A 
ATOM      3  C   UNL     1       3.469  -0.697  -0.243  1.00  0.00    +0.047 A 
ATOM      4  C   UNL     1       4.869  -0.637  -0.442  1.00  0.00    +0.141 A 
ATOM      5  N   UNL     1       5.481  -1.643  -1.129  1.00  0.00    -0.219 NA
ATOM      6  C   UNL     1       4.789  -2.692  -1.631  1.00  0.00    +0.224 A 
ATOM      7  N   UNL     1       3.446  -2.764  -1.468  1.00  0.00    -0.236 NA
ATOM      8  C   UNL     1       2.774  -1.798  -0.794  1.00  0.00    +0.078 A 
ATOM      9  C   UNL     1       1.389  -1.894  -0.647  1.00  0.00    +0.059 A 
ATOM     10  C   UNL     1       0.678  -0.916   0.052  1.00  0.00    +0.086 A 
ENDROOT
BRANCH   1  11
ATOM     11  O   UNL     1       0.594   1.134   1.322  1.00  0.00    -0.495 OA
ATOM     12  C   UNL     1       1.141   2.294   1.941  1.00  0.00    +0.278 C 
ENDBRANCH   1  11
BRANCH  10  13
ATOM     13  N   UNL     1      -0.743  -1.022   0.157  1.00  0.00    -0.319 N 
ATOM     14  C   UNL     1      -1.609  -0.503  -0.858  1.00  0.00    +0.248 C 
ATOM     15  O   UNL     1      -1.121   0.159  -1.819  1.00  0.00    -0.270 OA
ATOM     16  H   UNL     1      -1.154  -1.423   1.031  1.00  0.00    +0.170 HD
BRANCH  14  17
ATOM     17  C   UNL     1      -3.056  -0.777  -0.801  1.00  0.00    +0.068 C 
ATOM     18  C   UNL     1      -3.934  -0.070  -1.515  1.00  0.00    -0.006 C 
BRANCH  18  19
ATOM     19  C   UNL     1      -5.400  -0.394  -1.517  1.00  0.00    +0.112 C 
BRANCH  19  20
ATOM     20  N   UNL     1      -5.941  -0.501  -0.140  1.00  0.00    -0.300 NA
ATOM     21  C   UNL     1      -5.942   0.781   0.603  1.00  0.00    +0.085 C 
ATOM     22  C   UNL     1      -7.264  -1.159  -0.109  1.00  0.00    +0.085 C 
ATOM     23  C   UNL     1      -7.036   1.745   0.127  1.00  0.00    +0.016 C 
ATOM     24  C   UNL     1      -8.386  -0.245  -0.623  1.00  0.00    +0.016 C 
ATOM     25  C   UNL     1      -8.407   1.068   0.163  1.00  0.00    +0.003 C 
ENDBRANCH  19  20
ENDBRANCH  18  19
ENDBRANCH  14  17
ENDBRANCH  10  13
BRANCH   4  26
ATOM     26  N   UNL     1       5.657   0.488  -0.012  1.00  0.00    -0.340 N 
ATOM     27  H   UNL     1       5.213   1.435   0.008  1.00  0.00    +0.168 HD
BRANCH  26  28
ATOM     28  C   UNL     1       7.092   0.432   0.084  1.00  0.00    +0.043 A 
ATOM     29  C   UNL     1       7.863   1.506  -0.381  1.00  0.00    +0.028 A 
ATOM     30  C   UNL     1       7.735  -0.687   0.641  1.00  0.00    +0.067 A 
ATOM     31  C   UNL     1       9.260   1.447  -0.324  1.00  0.00    +0.026 A 
ATOM     32  C   UNL     1       9.131  -0.741   0.698  1.00  0.00    +0.143 A 
ATOM     33  C   UNL     1       9.895   0.319   0.201  1.00  0.00    +0.076 A 
ATOM     34  F   UNL     1       9.742  -1.832   1.233  1.00  0.00    -0.205 F 
ATOM     35 Cl   UNL     1      11.648   0.244   0.234  1.00  0.00    -0.081 Cl
ENDBRANCH  26  28
ENDBRANCH   4  26
TORSDOF 7
