REMARK SMILES COc1cc(Cc2cc3c(cnn3-c3cccc(F)c3)nc2N2CCC(N3CCOCC3)CC2)cc(OC)c1
REMARK SMILES IDX 6 1 5 2 3 3 4 4 39 5 36 6 35 7 2 8 1 9 37 10 38 11 7 12
REMARK SMILES IDX 22 13 8 14 21 15 9 16 10 17 13 18 11 19 12 20 23 21 24 22
REMARK SMILES IDX 34 23 25 24 33 25 26 26 27 27 28 28 32 29 29 30 31 31 30 32
REMARK SMILES IDX 14 33 15 34 20 35 16 36 18 37 17 38 19 39
REMARK H PARENT
ROOT
ATOM      1  C   UNL     1      -1.308  -0.223  -1.760  1.00  0.00    +0.075 C 
ENDROOT
BRANCH   1   2
ATOM      2  C   UNL     1      -2.292  -1.141  -1.088  1.00  0.00    -0.036 A 
ATOM      3  C   UNL     1      -4.516  -1.526  -0.171  1.00  0.00    +0.122 A 
ATOM      4  C   UNL     1      -3.595  -0.696  -0.817  1.00  0.00    +0.050 A 
ATOM      5  C   UNL     1      -4.123  -2.821   0.217  1.00  0.00    +0.092 A 
ATOM      6  C   UNL     1      -2.816  -3.277  -0.043  1.00  0.00    +0.122 A 
ATOM      7  C   UNL     1      -1.910  -2.431  -0.691  1.00  0.00    +0.050 A 
BRANCH   3   8
ATOM      8  O   UNL     1      -5.805  -1.028   0.067  1.00  0.00    -0.497 OA
ATOM      9  C   UNL     1      -6.837  -1.750   0.731  1.00  0.00    +0.278 C 
ENDBRANCH   3   8
BRANCH   6  10
ATOM     10  O   UNL     1      -2.380  -4.559   0.326  1.00  0.00    -0.497 OA
ATOM     11  C   UNL     1      -3.200  -5.539   0.954  1.00  0.00    +0.278 C 
ENDBRANCH   6  10
ENDBRANCH   1   2
BRANCH   1  12
ATOM     12  C   UNL     1      -0.610   0.644  -0.741  1.00  0.00    +0.001 A 
ATOM     13  C   UNL     1       0.527   0.200   0.018  1.00  0.00    +0.133 A 
ATOM     14  C   UNL     1      -1.188   1.900  -0.439  1.00  0.00    +0.038 A 
ATOM     15  N   UNL     1       1.025   0.993   1.017  1.00  0.00    -0.227 NA
ATOM     16  C   UNL     1      -0.602   2.665   0.566  1.00  0.00    +0.093 A 
ATOM     17  C   UNL     1       0.465   2.198   1.257  1.00  0.00    +0.111 A 
ATOM     18  N   UNL     1      -1.003   3.826   1.122  1.00  0.00    -0.231 N 
ATOM     19  C   UNL     1       0.711   3.102   2.262  1.00  0.00    +0.164 A 
ATOM     20  N   UNL     1      -0.212   4.091   2.160  1.00  0.00    -0.174 NA
BRANCH  13  21
ATOM     21  N   UNL     1       1.122  -1.098  -0.181  1.00  0.00    -0.356 N 
ATOM     22  C   UNL     1       1.462  -1.901   0.997  1.00  0.00    +0.119 C 
ATOM     23  C   UNL     1       1.814  -1.411  -1.441  1.00  0.00    +0.119 C 
ATOM     24  C   UNL     1       2.959  -1.750   1.317  1.00  0.00    +0.040 C 
ATOM     25  C   UNL     1       3.102  -2.214  -1.191  1.00  0.00    +0.040 C 
ATOM     26  C   UNL     1       3.883  -1.705   0.053  1.00  0.00    +0.060 C 
BRANCH  26  27
ATOM     27  N   UNL     1       4.471  -0.334  -0.104  1.00  0.00    -0.296 NA
ATOM     28  C   UNL     1       5.512  -0.061   0.925  1.00  0.00    +0.113 C 
ATOM     29  C   UNL     1       5.031  -0.017  -1.439  1.00  0.00    +0.113 C 
ATOM     30  C   UNL     1       6.940  -0.401   0.438  1.00  0.00    +0.175 C 
ATOM     31  C   UNL     1       6.299  -0.848  -1.743  1.00  0.00    +0.175 C 
ATOM     32  O   UNL     1       6.902  -1.381  -0.577  1.00  0.00    -0.379 OA
ENDBRANCH  26  27
ENDBRANCH  13  21
BRANCH  18  33
ATOM     33  C   UNL     1      -2.113   4.655   0.742  1.00  0.00    +0.068 A 
ATOM     34  C   UNL     1      -2.944   5.209   1.729  1.00  0.00    +0.028 A 
ATOM     35  C   UNL     1      -2.348   4.963  -0.611  1.00  0.00    +0.067 A 
ATOM     36  C   UNL     1      -4.010   6.036   1.369  1.00  0.00    +0.005 A 
ATOM     37  C   UNL     1      -3.414   5.795  -0.967  1.00  0.00    +0.125 A 
ATOM     38  C   UNL     1      -4.247   6.328   0.021  1.00  0.00    +0.039 A 
ATOM     39  F   UNL     1      -3.630   6.095  -2.273  1.00  0.00    -0.207 F 
ENDBRANCH  18  33
ENDBRANCH   1  12
TORSDOF 7
