REMARK SMILES COc1cc(Cc2ccc(F)c(F)c2)c(Nc2cc(N3CCN(C)CC3)ccn2)nc1C(=O)NC1CCNCC1
REMARK SMILES IDX 3 1 4 2 5 3 15 4 30 5 31 6 2 7 1 8 32 9 33 10 34 11 35 13
REMARK SMILES IDX 36 14 40 15 37 16 39 17 38 18 6 20 7 21 8 22 14 23 9 24
REMARK SMILES IDX 12 25 10 26 13 27 11 28 16 29 17 31 18 32 29 33 19 34 28 35
REMARK SMILES IDX 27 36 20 37 21 38 26 39 22 40 25 41 23 42 24 43
REMARK H PARENT 34 12 38 19 16 30
ROOT
ATOM      1  C   UNL     1       2.608   1.291  -1.222  1.00  0.00    +0.150 A 
ATOM      2  C   UNL     1       2.066   2.591  -1.205  1.00  0.00    +0.056 A 
ATOM      3  C   UNL     1       0.778   2.827  -0.703  1.00  0.00    +0.003 A 
ATOM      4  C   UNL     1       0.049   1.738  -0.183  1.00  0.00    +0.136 A 
ATOM      5  N   UNL     1       0.616   0.499  -0.188  1.00  0.00    -0.221 NA
ATOM      6  C   UNL     1       1.855   0.241  -0.669  1.00  0.00    +0.172 A 
ENDROOT
BRANCH   1   7
ATOM      7  O   UNL     1       3.830   1.019  -1.847  1.00  0.00    -0.494 OA
ATOM      8  C   UNL     1       4.877   1.963  -2.023  1.00  0.00    +0.278 C 
ENDBRANCH   1   7
BRANCH   6   9
ATOM      9  C   UNL     1       2.325  -1.161  -0.620  1.00  0.00    +0.274 C 
ATOM     10  O   UNL     1       1.459  -2.086  -0.633  1.00  0.00    -0.267 OA
ATOM     11  N   UNL     1       3.722  -1.489  -0.480  1.00  0.00    -0.348 N 
ATOM     12  H   UNL     1       4.424  -0.724  -0.335  1.00  0.00    +0.164 HD
BRANCH  11  13
ATOM     13  C   UNL     1       4.199  -2.875  -0.559  1.00  0.00    +0.085 C 
ATOM     14  C   UNL     1       4.591  -3.216  -2.016  1.00  0.00    +0.040 C 
ATOM     15  C   UNL     1       5.343  -3.117   0.451  1.00  0.00    +0.040 C 
ATOM     16  C   UNL     1       6.065  -3.618  -2.150  1.00  0.00    +0.083 C 
ATOM     17  C   UNL     1       6.697  -2.555  -0.020  1.00  0.00    +0.083 C 
ATOM     18  N   UNL     1       6.932  -2.650  -1.478  1.00  0.00    -0.317 NA
ATOM     19  H   UNL     1       6.778  -1.707  -1.914  1.00  0.00    +0.122 HD
ENDBRANCH  11  13
ENDBRANCH   6   9
BRANCH   3  20
ATOM     20  C   UNL     1       0.232   4.245  -0.721  1.00  0.00    +0.075 C 
BRANCH  20  21
ATOM     21  C   UNL     1       0.315   4.877   0.644  1.00  0.00    -0.040 A 
ATOM     22  C   UNL     1      -0.848   5.175   1.373  1.00  0.00    +0.007 A 
ATOM     23  C   UNL     1       1.566   5.200   1.195  1.00  0.00    +0.046 A 
ATOM     24  C   UNL     1      -0.760   5.770   2.634  1.00  0.00    +0.043 A 
ATOM     25  C   UNL     1       1.651   5.797   2.458  1.00  0.00    +0.159 A 
ATOM     26  C   UNL     1       0.489   6.081   3.178  1.00  0.00    +0.158 A 
ATOM     27  F   UNL     1       2.865   6.104   2.977  1.00  0.00    -0.204 F 
ATOM     28  F   UNL     1       0.570   6.655   4.402  1.00  0.00    -0.204 F 
ENDBRANCH  20  21
ENDBRANCH   3  20
BRANCH   4  29
ATOM     29  N   UNL     1      -1.300   1.879   0.302  1.00  0.00    -0.325 N 
ATOM     30  H   UNL     1      -1.885   2.699   0.033  1.00  0.00    +0.170 HD
BRANCH  29  31
ATOM     31  C   UNL     1      -1.958   0.773   0.921  1.00  0.00    +0.133 A 
ATOM     32  C   UNL     1      -3.087   0.206   0.323  1.00  0.00    +0.073 A 
ATOM     33  N   UNL     1      -1.421   0.210   2.033  1.00  0.00    -0.239 NA
ATOM     34  C   UNL     1      -3.646  -0.978   0.852  1.00  0.00    +0.042 A 
ATOM     35  C   UNL     1      -1.960  -0.895   2.605  1.00  0.00    +0.115 A 
ATOM     36  C   UNL     1      -3.070  -1.514   2.030  1.00  0.00    +0.046 A 
BRANCH  34  37
ATOM     37  N   UNL     1      -4.748  -1.668   0.181  1.00  0.00    -0.369 N 
ATOM     38  C   UNL     1      -5.142  -3.011   0.656  1.00  0.00    +0.132 C 
ATOM     39  C   UNL     1      -5.485  -0.970  -0.898  1.00  0.00    +0.132 C 
ATOM     40  C   UNL     1      -6.197  -3.704  -0.217  1.00  0.00    +0.105 C 
ATOM     41  C   UNL     1      -6.643  -1.764  -1.549  1.00  0.00    +0.105 C 
ATOM     42  N   UNL     1      -7.239  -2.780  -0.676  1.00  0.00    -0.303 NA
ATOM     43  C   UNL     1      -8.025  -2.192   0.420  1.00  0.00    +0.105 C 
ENDBRANCH  34  37
ENDBRANCH  29  31
ENDBRANCH   4  29
TORSDOF 8
