REMARK SMILES C#Cc1cccc(Nc2ncnc3cc(OCCOC)c(OCCOC)cc23)c1
REMARK SMILES IDX 15 1 14 2 13 3 12 4 11 5 10 6 9 7 28 8 27 9 21 10 16 11
REMARK SMILES IDX 17 12 18 13 19 14 20 15 22 16 23 17 24 18 25 19 26 20 8 21
REMARK SMILES IDX 7 23 6 24 29 25 5 26 3 27 4 28 2 29 1 30
REMARK H PARENT 8 22
ROOT
ATOM      1  C   UNL     1      -2.340   0.838   0.486  1.00  0.00    +0.163 A 
ATOM      2  C   UNL     1      -1.556   1.761   1.202  1.00  0.00    +0.079 A 
ATOM      3  C   UNL     1      -0.198   1.523   1.419  1.00  0.00    +0.080 A 
ATOM      4  N   UNL     1       0.541   2.429   2.108  1.00  0.00    -0.236 NA
ATOM      5  C   UNL     1       1.862   2.226   2.329  1.00  0.00    +0.224 A 
ATOM      6  N   UNL     1       2.470   1.110   1.853  1.00  0.00    -0.219 NA
ATOM      7  C   UNL     1       1.785   0.161   1.159  1.00  0.00    +0.141 A 
ATOM      8  C   UNL     1       0.404   0.347   0.926  1.00  0.00    +0.047 A 
ATOM      9  C   UNL     1      -0.389  -0.597   0.250  1.00  0.00    +0.064 A 
ATOM     10  C   UNL     1      -1.755  -0.343   0.007  1.00  0.00    +0.162 A 
ENDROOT
BRANCH   1  11
ATOM     11  O   UNL     1      -3.704   1.053   0.227  1.00  0.00    -0.487 OA
BRANCH  11  12
ATOM     12  C   UNL     1      -4.434   2.243   0.530  1.00  0.00    +0.258 C 
BRANCH  12  13
ATOM     13  C   UNL     1      -4.094   3.358  -0.456  1.00  0.00    +0.201 C 
BRANCH  13  14
ATOM     14  O   UNL     1      -4.842   4.506  -0.126  1.00  0.00    -0.381 OA
ATOM     15  C   UNL     1      -4.461   5.575  -0.956  1.00  0.00    +0.195 C 
ENDBRANCH  13  14
ENDBRANCH  12  13
ENDBRANCH  11  12
ENDBRANCH   1  11
BRANCH  10  16
ATOM     16  O   UNL     1      -2.571  -1.237  -0.709  1.00  0.00    -0.487 OA
BRANCH  16  17
ATOM     17  C   UNL     1      -2.128  -2.403  -1.407  1.00  0.00    +0.258 C 
BRANCH  17  18
ATOM     18  C   UNL     1      -1.341  -2.032  -2.670  1.00  0.00    +0.201 C 
BRANCH  18  19
ATOM     19  O   UNL     1      -2.047  -1.077  -3.439  1.00  0.00    -0.381 OA
ATOM     20  C   UNL     1      -2.739  -1.705  -4.500  1.00  0.00    +0.195 C 
ENDBRANCH  18  19
ENDBRANCH  17  18
ENDBRANCH  16  17
ENDBRANCH  10  16
BRANCH   7  21
ATOM     21  N   UNL     1       2.491  -0.977   0.633  1.00  0.00    -0.340 N 
ATOM     22  H   UNL     1       2.232  -1.332  -0.313  1.00  0.00    +0.168 HD
BRANCH  21  23
ATOM     23  C   UNL     1       3.670  -1.522   1.245  1.00  0.00    +0.041 A 
ATOM     24  C   UNL     1       3.847  -1.500   2.641  1.00  0.00    +0.026 A 
ATOM     25  C   UNL     1       4.646  -2.130   0.441  1.00  0.00    +0.043 A 
ATOM     26  C   UNL     1       4.993  -2.058   3.216  1.00  0.00    +0.003 A 
ATOM     27  C   UNL     1       5.798  -2.683   1.016  1.00  0.00    +0.026 A 
ATOM     28  C   UNL     1       5.969  -2.645   2.405  1.00  0.00    +0.017 A 
ATOM     29  C   UNL     1       6.802  -3.289   0.182  1.00  0.00    -0.070 C 
ATOM     30  C   UNL     1       7.643  -3.795  -0.516  1.00  0.00    +0.010 C 
ENDBRANCH  21  23
ENDBRANCH   7  21
TORSDOF 10
