REMARK SMILES C#Cc1cccc(Nc2ncnc3cc(OCCOC)c(OCCOC)cc23)c1
REMARK SMILES IDX 9 1 10 2 11 3 12 4 13 5 14 6 15 7 21 8 27 9 28 10 8 11 7 13
REMARK SMILES IDX 2 14 3 15 4 16 29 17 5 18 6 19 1 20 22 21 23 22 24 23 25 24
REMARK SMILES IDX 26 25 16 26 17 27 18 28 19 29 20 30
REMARK H PARENT 8 12
ROOT
ATOM      1  C   UNL     1       3.265  -0.457   1.065  1.00  0.00    +0.141 A 
ATOM      2  N   UNL     1       4.193  -1.368   1.410  1.00  0.00    -0.219 NA
ATOM      3  C   UNL     1       3.734  -2.578   1.743  1.00  0.00    +0.224 A 
ATOM      4  N   UNL     1       2.453  -2.959   1.772  1.00  0.00    -0.236 NA
ATOM      5  C   UNL     1       1.540  -2.033   1.458  1.00  0.00    +0.080 A 
ATOM      6  C   UNL     1       0.198  -2.390   1.494  1.00  0.00    +0.079 A 
ATOM      7  C   UNL     1      -0.810  -1.476   1.186  1.00  0.00    +0.163 A 
ATOM      8  C   UNL     1      -0.482  -0.156   0.895  1.00  0.00    +0.162 A 
ATOM      9  C   UNL     1       0.856   0.217   0.826  1.00  0.00    +0.064 A 
ATOM     10  C   UNL     1       1.884  -0.722   1.097  1.00  0.00    +0.047 A 
ENDROOT
BRANCH   1  11
ATOM     11  N   UNL     1       3.793   0.799   0.693  1.00  0.00    -0.340 N 
ATOM     12  H   UNL     1       4.798   0.689   0.841  1.00  0.00    +0.168 HD
BRANCH  11  13
ATOM     13  C   UNL     1       3.620   1.438  -0.563  1.00  0.00    +0.041 A 
ATOM     14  C   UNL     1       2.701   0.720  -4.114  1.00  0.00    -0.070 C 
ATOM     15  C   UNL     1       3.120   1.427  -2.943  1.00  0.00    +0.026 A 
ATOM     16  C   UNL     1       3.431   2.785  -3.022  1.00  0.00    +0.017 A 
ATOM     17  C   UNL     1       3.224   0.755  -1.721  1.00  0.00    +0.043 A 
ATOM     18  C   UNL     1       3.852   3.469  -1.883  1.00  0.00    +0.003 A 
ATOM     19  C   UNL     1       3.955   2.795  -0.664  1.00  0.00    +0.026 A 
ATOM     20  C   UNL     1       2.349   0.125  -5.096  1.00  0.00    +0.010 C 
ENDBRANCH  11  13
ENDBRANCH   1  11
BRANCH   8  21
ATOM     21  O   UNL     1      -1.418   0.805   0.631  1.00  0.00    -0.487 OA
BRANCH  21  22
ATOM     22  C   UNL     1      -2.112   1.185   1.833  1.00  0.00    +0.258 C 
BRANCH  22  23
ATOM     23  C   UNL     1      -2.782   2.538   1.600  1.00  0.00    +0.201 C 
BRANCH  23  24
ATOM     24  O   UNL     1      -1.790   3.571   1.620  1.00  0.00    -0.381 OA
ATOM     25  C   UNL     1      -2.354   4.845   1.341  1.00  0.00    +0.195 C 
ENDBRANCH  23  24
ENDBRANCH  22  23
ENDBRANCH  21  22
ENDBRANCH   8  21
BRANCH   7  26
ATOM     26  O   UNL     1      -2.102  -1.928   1.236  1.00  0.00    -0.487 OA
BRANCH  26  27
ATOM     27  C   UNL     1      -2.669  -1.998  -0.084  1.00  0.00    +0.258 C 
BRANCH  27  28
ATOM     28  C   UNL     1      -3.880  -2.929  -0.044  1.00  0.00    +0.201 C 
BRANCH  28  29
ATOM     29  O   UNL     1      -3.436  -4.286   0.051  1.00  0.00    -0.381 OA
ATOM     30  C   UNL     1      -4.527  -5.190   0.151  1.00  0.00    +0.195 C 
ENDBRANCH  28  29
ENDBRANCH  27  28
ENDBRANCH  26  27
ENDBRANCH   7  26
TORSDOF 10
