REMARK SMILES COc1cc([C@@H]2c3cc4c(cc3[C@@H](O[C@H]3O[C@H]5CO[C@H](C)O[C@@H]5[C@H](O)[C@@H]3O)[C@H]3COC(=O)[C@@H]23)OCO4)cc(OC)c1O
REMARK SMILES IDX 6 1 7 2 8 3 9 4 10 5 11 6 12 7 13 8 28 9 29 10 30 11 31 12
REMARK SMILES IDX 32 13 33 14 34 15 35 16 36 17 5 18 3 19 4 20 41 21 38 22
REMARK SMILES IDX 37 23 2 24 1 25 42 26 39 28 40 29 14 30 15 31 16 32 26 33
REMARK SMILES IDX 17 34 24 35 18 36 23 37 19 38 22 39 20 40 21 41 27 42 25 44
REMARK H PARENT 42 27 27 43 25 45
ROOT
ATOM      1  C   UNL     1      -2.524  -0.737  -1.454  1.00  0.00    +0.065 C 
ATOM      2  C   UNL     1      -1.890  -1.464  -0.279  1.00  0.00    -0.030 A 
ATOM      3  C   UNL     1      -2.670  -2.435   0.400  1.00  0.00    +0.055 A 
ATOM      4  C   UNL     1      -2.116  -3.086   1.492  1.00  0.00    +0.166 A 
ATOM      5  C   UNL     1      -0.856  -2.829   1.915  1.00  0.00    +0.166 A 
ATOM      6  C   UNL     1      -0.046  -1.895   1.282  1.00  0.00    +0.057 A 
ATOM      7  C   UNL     1      -0.553  -1.215   0.148  1.00  0.00    -0.011 A 
ATOM      8  C   UNL     1       0.263  -0.119  -0.483  1.00  0.00    +0.159 C 
ATOM      9  C   UNL     1      -0.077   0.073  -1.971  1.00  0.00    +0.076 C 
ATOM     10  C   UNL     1       0.456  -1.025  -2.917  1.00  0.00    +0.240 C 
ATOM     11  O   UNL     1      -0.414  -0.978  -4.031  1.00  0.00    -0.465 OA
ATOM     12  C   UNL     1      -1.561  -0.283  -3.715  1.00  0.00    +0.310 C 
ATOM     13  O   UNL     1      -2.506  -0.116  -4.531  1.00  0.00    -0.252 OA
ATOM     14  C   UNL     1      -1.579   0.182  -2.300  1.00  0.00    +0.120 C 
ATOM     15  O   UNL     1      -0.570  -3.607   3.021  1.00  0.00    -0.454 OA
ATOM     16  C   UNL     1      -1.727  -4.403   3.305  1.00  0.00    +0.468 C 
ATOM     17  O   UNL     1      -2.692  -4.038   2.308  1.00  0.00    -0.454 OA
ENDROOT
BRANCH   1  18
ATOM     18  C   UNL     1      -3.746   0.036  -0.986  1.00  0.00    -0.032 A 
ATOM     19  C   UNL     1      -4.737   1.907   0.231  1.00  0.00    +0.164 A 
ATOM     20  C   UNL     1      -3.604   1.180  -0.185  1.00  0.00    +0.055 A 
ATOM     21  C   UNL     1      -6.018   1.441  -0.096  1.00  0.00    +0.200 A 
ATOM     22  C   UNL     1      -6.176   0.279  -0.868  1.00  0.00    +0.164 A 
ATOM     23  C   UNL     1      -5.035  -0.406  -1.327  1.00  0.00    +0.055 A 
BRANCH  19  24
ATOM     24  O   UNL     1      -4.631   3.100   0.964  1.00  0.00    -0.493 OA
ATOM     25  C   UNL     1      -3.397   3.711   1.338  1.00  0.00    +0.278 C 
ENDBRANCH  19  24
BRANCH  21  26
ATOM     26  O   UNL     1      -7.129   2.152   0.356  1.00  0.00    -0.502 OA
ATOM     27  H   UNL     1      -8.077   1.831   0.205  1.00  0.00    +0.293 HD
ENDBRANCH  21  26
BRANCH  22  28
ATOM     28  O   UNL     1      -7.476  -0.164  -1.166  1.00  0.00    -0.493 OA
ATOM     29  C   UNL     1      -7.777  -1.336  -1.918  1.00  0.00    +0.278 C 
ENDBRANCH  22  28
ENDBRANCH   1  18
BRANCH   8  30
ATOM     30  O   UNL     1       1.651  -0.428  -0.370  1.00  0.00    -0.341 OA
BRANCH  30  31
ATOM     31  C   UNL     1       2.453   0.693  -0.020  1.00  0.00    +0.282 C 
ATOM     32  O   UNL     1       2.957   0.453   1.295  1.00  0.00    -0.341 OA
ATOM     33  C   UNL     1       3.542   0.889  -1.127  1.00  0.00    +0.202 C 
ATOM     34  C   UNL     1       4.226   1.047   1.476  1.00  0.00    +0.179 C 
ATOM     35  C   UNL     1       4.841   0.118  -0.806  1.00  0.00    +0.180 C 
ATOM     36  C   UNL     1       4.680   1.005   2.927  1.00  0.00    +0.198 C 
ATOM     37  C   UNL     1       5.266   0.263   0.678  1.00  0.00    +0.184 C 
ATOM     38  O   UNL     1       5.982   1.562   3.035  1.00  0.00    -0.350 OA
ATOM     39  O   UNL     1       6.520   0.904   0.833  1.00  0.00    -0.344 OA
ATOM     40  C   UNL     1       6.900   0.850   2.205  1.00  0.00    +0.247 C 
ATOM     41  C   UNL     1       8.276   1.489   2.356  1.00  0.00    +0.071 C 
BRANCH  33  42
ATOM     42  O   UNL     1       3.815   2.262  -1.277  1.00  0.00    -0.385 OA
ATOM     43  H   UNL     1       4.114   2.401  -2.213  1.00  0.00    +0.211 HD
ENDBRANCH  33  42
BRANCH  35  44
ATOM     44  O   UNL     1       5.870   0.537  -1.672  1.00  0.00    -0.387 OA
ATOM     45  H   UNL     1       6.526  -0.211  -1.719  1.00  0.00    +0.211 HD
ENDBRANCH  35  44
ENDBRANCH  30  31
ENDBRANCH   8  30
TORSDOF 8
