REMARK SMILES CO[C@H]1C[C@@H]2CC[C@@H](C)[C@@](O)(O2)C(=O)C(=O)N2CCCC[C@H]2C(=O)O[C@H]([C@H](C)C[C@@H]2CC[C@@H](OCCO)[C@H](OC)C2)CC(=O)[C@H](C)/C=C(\C)[C@@H](O)[C@@H](OC)C(=O)[C@H](C)C[C@H](C)/C=C/C=C/C=C/1C
REMARK SMILES IDX 17 1 18 2 19 3 20 4 21 5 22 6 15 7 16 8 13 9 14 10 10 11
REMARK SMILES IDX 5 12 6 13 12 14 7 15 8 16 9 17 4 18 3 19 2 20 1 21 67 22
REMARK SMILES IDX 66 23 68 24 65 25 64 26 63 27 62 28 60 29 61 30 59 31 57 32
REMARK SMILES IDX 58 33 11 35 23 37 24 38 25 39 26 40 27 41 28 42 29 43 30 44
REMARK SMILES IDX 31 45 41 46 32 47 38 48 33 49 39 50 40 51 34 52 35 53 36 54
REMARK SMILES IDX 37 55 42 57 43 58 44 59 45 60 46 61 47 62 48 63 49 64 50 65
REMARK SMILES IDX 51 66 52 68 53 69 54 70 55 71 56 72
REMARK H PARENT 11 36 37 56 51 67
REMARK Flexibility Score:  319.900
ROOT
ATOM      1  N   UNL     1      -1.562   5.571  -0.377  1.00  0.00    -0.322 N 
ATOM      2  C   UNL     1      -2.144   5.775   0.954  1.00  0.00    +0.121 C 
ATOM      3  C   UNL     1      -1.309   6.759   1.767  1.00  0.00    +0.022 C 
ATOM      4  C   UNL     1       0.160   6.342   1.803  1.00  0.00    +0.005 C 
ATOM      5  C   UNL     1       0.702   6.140   0.388  1.00  0.00    +0.037 C 
ATOM      6  C   UNL     1      -0.149   5.148  -0.420  1.00  0.00    +0.195 C 
ENDROOT
BRANCH   1   7
ATOM      7  C   UNL     1      -2.289   5.591  -1.567  1.00  0.00    +0.296 C 
ATOM      8  O   UNL     1      -1.828   5.251  -2.651  1.00  0.00    -0.265 OA
BRANCH   7   9
ATOM      9  C   UNL     1      -3.708   6.143  -1.527  1.00  0.00    +0.279 C 
ATOM     10  O   UNL     1      -3.918   7.257  -1.046  1.00  0.00    -0.282 OA
BRANCH   9  11
ATOM     11  C   UNL     1      -4.824   5.247  -2.089  1.00  0.00    +0.239 C 
ATOM     12  C   UNL     1      -5.607   2.986  -1.977  1.00  0.00    +0.125 C 
ATOM     13  C   UNL     1      -5.602   2.855  -3.504  1.00  0.00    +0.033 C 
ATOM     14  O   UNL     1      -4.647   3.947  -1.526  1.00  0.00    -0.340 OA
ATOM     15  C   UNL     1      -5.834   4.211  -4.158  1.00  0.00    +0.012 C 
ATOM     16  C   UNL     1      -4.804   5.220  -3.635  1.00  0.00    +0.054 C 
ATOM     17  C   UNL     1      -5.063   6.592  -4.264  1.00  0.00    +0.014 C 
BRANCH  12  18
ATOM     18  C   UNL     1      -5.377   1.645  -1.257  1.00  0.00    +0.068 C 
BRANCH  18  19
ATOM     19  C   UNL     1      -3.918   1.150  -1.204  1.00  0.00    +0.146 C 
BRANCH  19  20
ATOM     20  O   UNL     1      -3.429   0.955  -2.533  1.00  0.00    -0.377 OA
ATOM     21  C   UNL     1      -2.076   1.364  -2.676  1.00  0.00    +0.195 C 
ENDBRANCH  19  20
BRANCH  19  22
ATOM     22  C   UNL     1      -3.826  -0.185  -0.465  1.00  0.00    -0.045 C 
ATOM     23  C   UNL     1      -3.177  -0.275   0.716  1.00  0.00    +0.002 C 
ATOM     24  C   UNL     1      -4.487  -1.361  -1.147  1.00  0.00    +0.042 C 
BRANCH  23  25
ATOM     25  C   UNL     1      -3.076  -1.458   1.548  1.00  0.00    +0.000 C 
ATOM     26  C   UNL     1      -4.151  -2.086   2.051  1.00  0.00    -0.000 C 
BRANCH  26  27
ATOM     27  C   UNL     1      -4.149  -3.305   2.828  1.00  0.00    -0.004 C 
ATOM     28  C   UNL     1      -3.253  -3.647   3.767  1.00  0.00    -0.024 C 
BRANCH  28  29
ATOM     29  C   UNL     1      -3.288  -4.916   4.602  1.00  0.00    +0.009 C 
ATOM     30  C   UNL     1      -4.709  -5.397   4.925  1.00  0.00    +0.012 C 
BRANCH  29  31
ATOM     31  C   UNL     1      -2.495  -6.050   3.919  1.00  0.00    +0.018 C 
BRANCH  31  32
ATOM     32  C   UNL     1      -0.974  -5.820   3.905  1.00  0.00    +0.056 CG0
ATOM     33  C   UNL     1      -0.314  -6.257   5.210  1.00  0.00    +0.016 C 
ATOM     34  G   UNL     1      -0.371  -6.582   2.722  1.00  0.00    +0.000 G0
ENDBRANCH  31  32
ENDBRANCH  29  31
ENDBRANCH  28  29
ENDBRANCH  26  27
ENDBRANCH  23  25
ENDBRANCH  19  22
ENDBRANCH  18  19
ENDBRANCH  12  18
BRANCH  11  35
ATOM     35  O   UNL     1      -6.084   5.776  -1.654  1.00  0.00    -0.359 OA
ATOM     36  H   UNL     1      -5.882   6.458  -0.986  1.00  0.00    +0.214 HD
ENDBRANCH  11  35
ENDBRANCH   9  11
ENDBRANCH   7   9
ENDBRANCH   1   7
BRANCH   6  37
ATOM     37  C   UNL     1       0.042   3.694   0.058  1.00  0.00    +0.329 C 
ATOM     38  O   UNL     1      -0.857   2.932   0.393  1.00  0.00    -0.250 OA
BRANCH  37  39
ATOM     39  O   UNL     1       1.368   3.363   0.058  1.00  0.00    -0.460 OA
BRANCH  39  40
ATOM     40  C   UNL     1       1.729   2.129   0.728  1.00  0.00    +0.186 C 
BRANCH  40  41
ATOM     41  C   UNL     1       3.206   2.261   1.207  1.00  0.00    +0.028 C 
ATOM     42  C   UNL     1       3.324   3.431   2.197  1.00  0.00    +0.011 C 
BRANCH  41  43
ATOM     43  C   UNL     1       4.225   2.465   0.057  1.00  0.00    +0.010 C 
BRANCH  43  44
ATOM     44  C   UNL     1       4.966   1.176  -0.359  1.00  0.00    -0.008 C 
ATOM     45  C   UNL     1       5.862   0.634   0.773  1.00  0.00    +0.006 C 
ATOM     46  C   UNL     1       5.800   1.411  -1.623  1.00  0.00    +0.038 C 
ATOM     47  C   UNL     1       7.093  -0.126   0.266  1.00  0.00    +0.035 C 
ATOM     48  C   UNL     1       6.405   0.104  -2.165  1.00  0.00    +0.147 C 
ATOM     49  C   UNL     1       6.817  -0.880  -1.038  1.00  0.00    +0.147 C 
BRANCH  48  50
ATOM     50  O   UNL     1       7.540   0.478  -2.961  1.00  0.00    -0.379 OA
ATOM     51  C   UNL     1       7.816  -0.453  -4.001  1.00  0.00    +0.195 C 
ENDBRANCH  48  50
BRANCH  49  52
ATOM     52  O   UNL     1       5.731  -1.805  -0.843  1.00  0.00    -0.373 OA
BRANCH  52  53
ATOM     53  C   UNL     1       6.128  -3.057  -0.266  1.00  0.00    +0.188 C 
BRANCH  53  54
ATOM     54  C   UNL     1       6.538  -4.024  -1.375  1.00  0.00    +0.184 C 
BRANCH  54  55
ATOM     55  O   UNL     1       5.476  -4.155  -2.318  1.00  0.00    -0.394 OA
ATOM     56  H   UNL     1       5.104  -3.258  -2.422  1.00  0.00    +0.210 HD
ENDBRANCH  54  55
ENDBRANCH  53  54
ENDBRANCH  52  53
ENDBRANCH  49  52
ENDBRANCH  43  44
ENDBRANCH  41  43
ENDBRANCH  40  41
BRANCH  40  57
ATOM     57  C   UNL     1       1.463   0.935  -0.200  1.00  0.00    +0.121 C 
BRANCH  57  58
ATOM     58  C   UNL     1       1.533  -0.396   0.533  1.00  0.00    +0.143 C 
ATOM     59  O   UNL     1       1.712  -0.432   1.754  1.00  0.00    -0.299 OA
BRANCH  58  60
ATOM     60  C   UNL     1       1.427  -1.685  -0.315  1.00  0.00    +0.076 C 
ATOM     61  C   UNL     1       0.304  -1.612  -1.343  1.00  0.00    +0.020 C 
BRANCH  60  62
ATOM     62  C   UNL     1       1.186  -2.863   0.604  1.00  0.00    -0.014 C 
ATOM     63  C   UNL     1       1.628  -4.133   0.478  1.00  0.00    -0.045 C 
ATOM     64  C   UNL     1       2.417  -4.650  -0.695  1.00  0.00    +0.042 C 
BRANCH  63  65
ATOM     65  C   UNL     1       1.339  -5.172   1.562  1.00  0.00    +0.176 C 
BRANCH  65  66
ATOM     66  O   UNL     1       1.540  -4.539   2.833  1.00  0.00    -0.386 OA
ATOM     67  H   UNL     1       2.353  -4.007   2.757  1.00  0.00    +0.211 HD
ENDBRANCH  65  66
BRANCH  65  68
ATOM     68  C   UNL     1      -0.091  -5.754   1.452  1.00  0.00    +0.217 C 
BRANCH  68  69
ATOM     69  O   UNL     1      -0.182  -6.523   0.247  1.00  0.00    -0.371 OA
ATOM     70  C   UNL     1      -1.519  -6.882  -0.077  1.00  0.00    +0.196 C 
ENDBRANCH  68  69
BRANCH  68  71
ATOM     71  C   UNL     1      -0.371  -6.582   2.722  1.00  0.00    +0.167 CG0
ATOM     72  O   UNL     1      -0.184  -7.800   2.774  1.00  0.00    -0.296 OA
ATOM     73  G   UNL     1      -0.974  -5.820   3.905  1.00  0.00    +0.000 G0
ENDBRANCH  68  71
ENDBRANCH  65  68
ENDBRANCH  63  65
ENDBRANCH  60  62
ENDBRANCH  58  60
ENDBRANCH  57  58
ENDBRANCH  40  57
ENDBRANCH  39  40
ENDBRANCH  37  39
ENDBRANCH   6  37
TORSDOF 12
