REMARK SMILES CCN1CCN(C(=O)Oc2ccc3nc4c5c(c3c2)CN4C(=O)C2(CC)C(O)=C(O)C(=O)OCC52)CC1
REMARK SMILES IDX 10 1 19 2 18 3 13 4 12 5 11 6 14 7 15 8 16 9 17 10 20 11
REMARK SMILES IDX 21 12 22 13 23 14 24 15 35 16 9 17 7 18 3 19 4 20 37 21 5 22
REMARK SMILES IDX 36 23 6 24 8 25 2 26 1 27 34 28 33 29 31 30 32 31 25 33
REMARK SMILES IDX 26 34 27 35 29 36 28 38 30 40
REMARK H PARENT 28 39 30 41
REMARK Flexibility Score:   27.900
ROOT
ATOM      1  C   UNL     1       0.065  -0.242   2.102  1.00  0.00    +0.133 A 
ATOM      2  C   UNL     1      -0.735  -0.514   0.944  1.00  0.00    +0.058 A 
ATOM      3  C   UNL     1      -1.842   0.167   0.774  1.00  0.00    +0.009 A 
ATOM      4  C   UNL     1      -2.153   1.197   1.519  1.00  0.00    +0.073 A 
ATOM      5  C   UNL     1      -1.458   1.550   2.737  1.00  0.00    +0.033 A 
ATOM      6  C   UNL     1      -0.340   0.763   2.976  1.00  0.00    +0.049 A 
ATOM      7  N   UNL     1      -3.325   1.733   1.175  1.00  0.00    -0.230 NA
ATOM      8  C   UNL     1      -3.853   0.955   0.002  1.00  0.00    +0.140 A 
ATOM      9  C   UNL     1      -4.474   1.233  -0.415  1.00  0.00    +0.009 A 
ATOM     10  C   UNL     1      -3.075   0.096  -0.257  1.00  0.00    -0.011 A 
ATOM     11  C   UNL     1      -2.661  -0.767  -1.242  1.00  0.00    +0.164 C 
ATOM     12  N   UNL     1      -3.604   0.161  -1.476  1.00  0.00    -0.291 N 
ATOM     13  C   UNL     1      -4.556   0.018  -2.583  1.00  0.00    +0.243 C 
ATOM     14  O   UNL     1      -5.018  -1.137  -2.856  1.00  0.00    -0.273 OA
ATOM     15  C   UNL     1      -5.315   1.283  -2.712  1.00  0.00    +0.121 C 
ATOM     16  C   UNL     1      -5.672   1.589  -1.203  1.00  0.00    +0.085 C 
ENDROOT
BRANCH   1  17
ATOM     17  O   UNL     1       1.229  -0.947   2.287  1.00  0.00    -0.410 OA
BRANCH  17  18
ATOM     18  C   UNL     1       2.272  -0.743   1.357  1.00  0.00    +0.415 C 
ATOM     19  N   UNL     1       5.547  -1.284   3.029  1.00  0.00    -0.300 NA
ATOM     20  C   UNL     1       4.667  -2.418   3.376  1.00  0.00    +0.106 C 
ATOM     21  C   UNL     1       5.788  -1.036   1.593  1.00  0.00    +0.106 C 
ATOM     22  C   UNL     1       3.468  -2.609   2.444  1.00  0.00    +0.138 C 
ATOM     23  C   UNL     1       4.568  -1.278   0.683  1.00  0.00    +0.138 C 
ATOM     24  N   UNL     1       3.407  -1.527   1.478  1.00  0.00    -0.305 N 
ATOM     25  O   UNL     1       2.193   0.185   0.480  1.00  0.00    -0.224 OA
BRANCH  19  26
ATOM     26  C   UNL     1       5.452  -0.151   3.956  1.00  0.00    +0.081 C 
ATOM     27  C   UNL     1       6.262   1.068   3.537  1.00  0.00    +0.021 C 
ENDBRANCH  19  26
ENDBRANCH  17  18
ENDBRANCH   1  17
BRANCH  16  28
ATOM     28  C   UNL     1      -6.170   3.032  -0.922  1.00  0.00    +0.243 C 
BRANCH  28  29
ATOM     29  O   UNL     1      -5.011   3.869  -0.699  1.00  0.00    -0.459 OA
BRANCH  29  30
ATOM     30  C   UNL     1      -3.877   3.984  -1.509  1.00  0.00    +0.377 CG0
ATOM     31  O   UNL     1      -2.903   4.694  -0.998  1.00  0.00    -0.242 OA
ATOM     32  G   UNL     1      -3.686   3.402  -2.830  1.00  0.00    +0.000 G0
ENDBRANCH  29  30
ENDBRANCH  28  29
ENDBRANCH  16  28
BRANCH  15  33
ATOM     33  C   UNL     1      -6.571   1.114  -3.531  1.00  0.00    +0.022 C 
ATOM     34  C   UNL     1      -6.340   0.242  -4.843  1.00  0.00    +0.005 C 
ENDBRANCH  15  33
BRANCH  15  35
ATOM     35  C   UNL     1      -4.337   2.272  -3.307  1.00  0.00    +0.158 C 
ATOM     36  C   UNL     1      -3.686   3.402  -2.830  1.00  0.00    +0.241 CG0
ATOM     37  G   UNL     1      -3.877   3.984  -1.509  1.00  0.00    +0.000 G0
BRANCH  35  38
ATOM     38  O   UNL     1      -3.925   1.940  -4.644  1.00  0.00    -0.507 OA
ATOM     39  H   UNL     1      -2.892   1.878  -4.887  1.00  0.00    +0.293 HD
ENDBRANCH  35  38
BRANCH  36  40
ATOM     40  O   UNL     1      -2.739   4.001  -3.628  1.00  0.00    -0.499 OA
ATOM     41  H   UNL     1      -1.767   4.027  -3.391  1.00  0.00    +0.294 HD
ENDBRANCH  36  40
ENDBRANCH  15  35
TORSDOF 6
