REMARK SMILES CS(=O)(=O)CCNCc1ccc(-c2ccc3ncnc(Nc4ccc(OCc5cccc(F)c5)c(Cl)c4)c3c2)o1
REMARK SMILES IDX 13 1 39 2 38 3 16 4 15 5 14 6 17 7 18 8 19 9 20 10 12 11
REMARK SMILES IDX 9 12 10 13 40 14 11 15 8 16 7 17 6 19 5 20 2 21 3 22 4 23
REMARK SMILES IDX 1 24 21 25 22 27 37 28 23 29 35 30 24 31 25 32 36 33 26 34
REMARK SMILES IDX 27 35 28 36 34 37 29 38 32 39 30 40 31 41 33 42
REMARK H PARENT 7 18 21 26
ROOT
ATOM      1  C   UNL     1       1.977  -0.655  -0.948  1.00  0.00    +0.018 A 
ATOM      2  C   UNL     1       0.622  -0.269  -0.944  1.00  0.00    +0.026 A 
ATOM      3  C   UNL     1      -0.342  -1.013  -1.658  1.00  0.00    +0.044 A 
ATOM      4  C   UNL     1       0.067  -2.185  -2.336  1.00  0.00    +0.076 A 
ATOM      5  C   UNL     1       1.405  -2.587  -2.306  1.00  0.00    +0.030 A 
ATOM      6  C   UNL     1       2.354  -1.823  -1.628  1.00  0.00    +0.014 A 
ATOM      7  N   UNL     1      -0.835  -2.922  -3.031  1.00  0.00    -0.236 NA
ATOM      8  C   UNL     1      -2.135  -2.551  -3.099  1.00  0.00    +0.224 A 
ATOM      9  N   UNL     1      -2.555  -1.425  -2.470  1.00  0.00    -0.219 NA
ATOM     10  C   UNL     1      -1.711  -0.647  -1.739  1.00  0.00    +0.141 A 
ENDROOT
BRANCH   1  11
ATOM     11  C   UNL     1       3.020   0.168  -0.289  1.00  0.00    +0.134 A 
ATOM     12  C   UNL     1       4.967   0.831   0.287  1.00  0.00    +0.118 A 
ATOM     13  C   UNL     1       4.086   1.737   0.843  1.00  0.00    +0.047 A 
ATOM     14  O   UNL     1       4.307  -0.092  -0.373  1.00  0.00    -0.460 OA
ATOM     15  C   UNL     1       2.830   1.313   0.471  1.00  0.00    +0.051 A 
BRANCH  12  16
ATOM     16  C   UNL     1       6.456   0.863   0.420  1.00  0.00    +0.157 C 
BRANCH  16  17
ATOM     17  N   UNL     1       6.877  -0.026   1.511  1.00  0.00    -0.309 NA
ATOM     18  H   UNL     1       6.452   0.340   2.397  1.00  0.00    +0.123 HD
BRANCH  17  19
ATOM     19  C   UNL     1       8.336  -0.004   1.690  1.00  0.00    +0.097 C 
BRANCH  19  20
ATOM     20  C   UNL     1       9.021  -0.954   0.704  1.00  0.00    +0.152 C 
BRANCH  20  21
ATOM     21  S   UNL     1      10.772  -1.088   1.042  1.00  0.00    +0.148 S 
ATOM     22  O   UNL     1      11.382  -2.066   0.079  1.00  0.00    -0.229 OA
ATOM     23  O   UNL     1      10.984  -1.582   2.445  1.00  0.00    -0.229 OA
ATOM     24  C   UNL     1      11.571   0.492   0.845  1.00  0.00    +0.158 C 
ENDBRANCH  20  21
ENDBRANCH  19  20
ENDBRANCH  17  19
ENDBRANCH  16  17
ENDBRANCH  12  16
ENDBRANCH   1  11
BRANCH  10  25
ATOM     25  N   UNL     1      -2.218   0.562  -1.132  1.00  0.00    -0.340 N 
ATOM     26  H   UNL     1      -1.564   1.360  -0.981  1.00  0.00    +0.168 HD
BRANCH  25  27
ATOM     27  C   UNL     1      -3.621   0.851  -0.970  1.00  0.00    +0.041 A 
ATOM     28  C   UNL     1      -4.059   2.182  -1.031  1.00  0.00    +0.050 A 
ATOM     29  C   UNL     1      -4.564  -0.165  -0.727  1.00  0.00    +0.030 A 
ATOM     30  C   UNL     1      -5.419   2.491  -0.927  1.00  0.00    +0.085 A 
ATOM     31  C   UNL     1      -5.925   0.138  -0.647  1.00  0.00    +0.050 A 
ATOM     32  C   UNL     1      -6.367   1.469  -0.767  1.00  0.00    +0.138 A 
ATOM     33 Cl   UNL     1      -5.929   4.169  -1.039  1.00  0.00    -0.080 Cl
BRANCH  32  34
ATOM     34  O   UNL     1      -7.729   1.815  -0.747  1.00  0.00    -0.487 OA
BRANCH  34  35
ATOM     35  C   UNL     1      -8.816   0.891  -0.810  1.00  0.00    +0.265 C 
BRANCH  35  36
ATOM     36  C   UNL     1      -9.068   0.256   0.532  1.00  0.00    -0.008 A 
ATOM     37  C   UNL     1      -9.201   1.056   1.679  1.00  0.00    +0.046 A 
ATOM     38  C   UNL     1      -9.251  -1.133   0.635  1.00  0.00    +0.007 A 
ATOM     39  C   UNL     1      -9.489   0.470   2.917  1.00  0.00    +0.123 A 
ATOM     40  C   UNL     1      -9.539  -1.715   1.873  1.00  0.00    +0.003 A 
ATOM     41  C   UNL     1      -9.656  -0.915   3.013  1.00  0.00    +0.039 A 
ATOM     42  F   UNL     1      -9.616   1.249   4.020  1.00  0.00    -0.207 F 
ENDBRANCH  35  36
ENDBRANCH  34  35
ENDBRANCH  32  34
ENDBRANCH  25  27
ENDBRANCH  10  25
TORSDOF 11
