REMARK SMILES Cn1cc(Nc2ccnc(-c3c(F)cccc3F)c2)c(C(=O)Nc2ccc(N3CCC(O)CC3)cc2)n1
REMARK SMILES IDX 20 1 37 2 2 3 1 4 3 5 4 6 21 7 23 8 22 9 24 11 27 12 26 13
REMARK SMILES IDX 35 14 25 15 36 16 28 17 31 18 30 19 33 20 29 21 34 22 32 23
REMARK SMILES IDX 5 25 6 27 7 28 19 29 8 30 10 31 9 32 11 33 12 34 17 35 14 36
REMARK SMILES IDX 16 37 15 38 13 39 18 40
REMARK H PARENT 23 10 32 24 5 26
ROOT
ATOM      1  C   UNL     1       1.617  -3.468  -0.995  1.00  0.00    +0.173 A 
ATOM      2  N   UNL     1       1.347  -4.788  -0.915  1.00  0.00    -0.166 NA
ATOM      3  N   UNL     1       2.456  -5.444  -1.228  1.00  0.00    -0.273 N 
ATOM      4  C   UNL     1       2.555  -6.896  -1.281  1.00  0.00    +0.173 C 
ATOM      5  C   UNL     1       3.444  -4.579  -1.530  1.00  0.00    +0.135 A 
ATOM      6  C   UNL     1       2.943  -3.309  -1.369  1.00  0.00    +0.090 A 
ENDROOT
BRANCH   1   7
ATOM      7  C   UNL     1       0.608  -2.414  -0.792  1.00  0.00    +0.278 C 
ATOM      8  N   UNL     1      -0.606  -2.709  -0.081  1.00  0.00    -0.321 N 
ATOM      9  O   UNL     1       0.821  -1.252  -1.230  1.00  0.00    -0.267 OA
ATOM     10  H   UNL     1      -0.631  -3.571   0.508  1.00  0.00    +0.170 HD
BRANCH   8  11
ATOM     11  C   UNL     1      -1.689  -1.773   0.045  1.00  0.00    +0.041 A 
ATOM     12  C   UNL     1      -3.811   0.061   0.332  1.00  0.00    +0.037 A 
ATOM     13  C   UNL     1      -3.170  -0.098  -0.908  1.00  0.00    +0.028 A 
ATOM     14  C   UNL     1      -3.399  -0.727   1.418  1.00  0.00    +0.028 A 
ATOM     15  C   UNL     1      -2.119  -1.008  -1.051  1.00  0.00    +0.028 A 
ATOM     16  C   UNL     1      -2.355  -1.645   1.272  1.00  0.00    +0.028 A 
BRANCH  12  17
ATOM     17  N   UNL     1      -4.873   1.023   0.488  1.00  0.00    -0.371 N 
ATOM     18  C   UNL     1      -6.955   3.101   0.728  1.00  0.00    +0.118 C 
ATOM     19  C   UNL     1      -5.547   3.226   1.353  1.00  0.00    +0.053 C 
ATOM     20  C   UNL     1      -7.198   1.736   0.046  1.00  0.00    +0.053 C 
ATOM     21  C   UNL     1      -4.931   1.866   1.692  1.00  0.00    +0.119 C 
ATOM     22  C   UNL     1      -5.912   1.149  -0.546  1.00  0.00    +0.119 C 
BRANCH  18  23
ATOM     23  O   UNL     1      -7.924   3.311   1.721  1.00  0.00    -0.393 OA
ATOM     24  H   UNL     1      -8.782   3.487   1.254  1.00  0.00    +0.210 HD
ENDBRANCH  18  23
ENDBRANCH  12  17
ENDBRANCH   8  11
ENDBRANCH   1   7
BRANCH   6  25
ATOM     25  N   UNL     1       3.681  -2.091  -1.538  1.00  0.00    -0.352 N 
ATOM     26  H   UNL     1       4.304  -2.023  -2.376  1.00  0.00    +0.167 HD
BRANCH  25  27
ATOM     27  C   UNL     1       3.780  -1.067  -0.529  1.00  0.00    +0.042 A 
ATOM     28  C   UNL     1       3.335  -1.277   0.788  1.00  0.00    +0.046 A 
ATOM     29  C   UNL     1       4.387   0.155  -0.849  1.00  0.00    +0.055 A 
ATOM     30  C   UNL     1       3.475  -0.260   1.736  1.00  0.00    +0.114 A 
ATOM     31  C   UNL     1       4.517   1.146   0.134  1.00  0.00    +0.078 A 
ATOM     32  N   UNL     1       4.057   0.918   1.394  1.00  0.00    -0.256 NA
BRANCH  31  33
ATOM     33  C   UNL     1       5.174   2.422  -0.178  1.00  0.00    +0.072 A 
ATOM     34  C   UNL     1       4.407   3.547  -0.521  1.00  0.00    +0.135 A 
ATOM     35  C   UNL     1       6.574   2.522  -0.132  1.00  0.00    +0.135 A 
ATOM     36  C   UNL     1       5.039   4.759  -0.820  1.00  0.00    +0.040 A 
ATOM     37  C   UNL     1       7.198   3.738  -0.428  1.00  0.00    +0.040 A 
ATOM     38  C   UNL     1       6.432   4.855  -0.773  1.00  0.00    +0.006 A 
ATOM     39  F   UNL     1       3.052   3.468  -0.573  1.00  0.00    -0.206 F 
ATOM     40  F   UNL     1       7.331   1.446   0.204  1.00  0.00    -0.206 F 
ENDBRANCH  31  33
ENDBRANCH  25  27
ENDBRANCH   6  25
TORSDOF 7
