REMARK SMILES O=C(Nc1ncc2cnn(-c3cccc(F)c3)c2n1)[C@H]1CNCCO1
REMARK SMILES IDX 4 1 5 2 6 3 7 4 8 5 9 6 10 7 18 8 19 9 3 10 1 11 2 12 20 14
REMARK SMILES IDX 21 15 25 16 22 17 24 18 23 19 11 21 12 22 17 23 13 24 15 25
REMARK SMILES IDX 14 26 16 27
REMARK H PARENT 3 13 22 20
ROOT
ATOM      1  C   UNL     1       0.105  -1.445  -0.299  1.00  0.00    +0.231 A 
ATOM      2  N   UNL     1       0.266  -2.795  -0.110  1.00  0.00    -0.220 NA
ATOM      3  C   UNL     1      -0.801  -3.636   0.011  1.00  0.00    +0.129 A 
ATOM      4  C   UNL     1      -2.062  -3.081  -0.058  1.00  0.00    +0.058 A 
ATOM      5  C   UNL     1      -3.329  -3.565   0.201  1.00  0.00    +0.147 A 
ATOM      6  N   UNL     1      -4.196  -2.524   0.156  1.00  0.00    -0.174 NA
ATOM      7  N   UNL     1      -3.510  -1.425  -0.151  1.00  0.00    -0.214 N 
ATOM      8  C   UNL     1      -2.213  -1.754  -0.274  1.00  0.00    +0.168 A 
ATOM      9  N   UNL     1      -1.155  -0.912  -0.382  1.00  0.00    -0.192 NA
ENDROOT
BRANCH   1  10
ATOM     10  N   UNL     1       1.247  -0.575  -0.353  1.00  0.00    -0.292 N 
ATOM     11  O   UNL     1       2.756  -2.061   0.635  1.00  0.00    -0.272 OA
ATOM     12  C   UNL     1       2.529  -0.901   0.191  1.00  0.00    +0.257 C 
ATOM     13  H   UNL     1       1.090   0.390  -0.720  1.00  0.00    +0.173 HD
BRANCH  12  14
ATOM     14  C   UNL     1       3.627   0.130   0.242  1.00  0.00    +0.221 C 
ATOM     15  C   UNL     1       4.387   0.188  -1.096  1.00  0.00    +0.123 C 
ATOM     16  O   UNL     1       3.082   1.401   0.531  1.00  0.00    -0.366 OA
ATOM     17  N   UNL     1       5.296   1.362  -1.187  1.00  0.00    -0.311 NA
ATOM     18  C   UNL     1       4.105   2.380   0.734  1.00  0.00    +0.176 C 
ATOM     19  C   UNL     1       5.475   2.033   0.110  1.00  0.00    +0.109 C 
ATOM     20  H   UNL     1       6.238   1.005  -1.483  1.00  0.00    +0.122 HD
ENDBRANCH  12  14
ENDBRANCH   1  10
BRANCH   7  21
ATOM     21  C   UNL     1      -4.069  -0.107  -0.148  1.00  0.00    +0.070 A 
ATOM     22  C   UNL     1      -3.706   0.817  -1.143  1.00  0.00    +0.028 A 
ATOM     23  C   UNL     1      -4.967   0.276   0.871  1.00  0.00    +0.067 A 
ATOM     24  C   UNL     1      -4.243   2.105  -1.137  1.00  0.00    +0.005 A 
ATOM     25  C   UNL     1      -5.488   1.575   0.889  1.00  0.00    +0.125 A 
ATOM     26  C   UNL     1      -5.135   2.488  -0.115  1.00  0.00    +0.039 A 
ATOM     27  F   UNL     1      -6.327   1.961   1.892  1.00  0.00    -0.207 F 
ENDBRANCH   7  21
TORSDOF 3
