REMARK SMILES O=C(Nc1cnn2ccc(N3CCC[C@@H]3c3cc(F)ccc3F)nc12)N1CC[C@H](O)C1
REMARK SMILES IDX 4 1 5 2 6 3 7 4 8 5 9 6 10 7 24 8 25 9 3 10 1 11 2 12 26 14
REMARK SMILES IDX 27 15 31 16 28 17 29 18 30 19 11 21 12 22 15 23 13 24 14 25
REMARK SMILES IDX 16 26 17 27 22 28 18 29 21 30 20 31 23 32 19 33
REMARK H PARENT 3 13 30 20
ROOT
ATOM      1  C   UNL     1       1.759   2.133  -0.888  1.00  0.00    +0.108 A 
ATOM      2  C   UNL     1       1.783   3.471  -1.321  1.00  0.00    +0.164 A 
ATOM      3  N   UNL     1       0.626   4.104  -1.104  1.00  0.00    -0.173 NA
ATOM      4  N   UNL     1      -0.163   3.165  -0.527  1.00  0.00    -0.220 N 
ATOM      5  C   UNL     1      -1.475   3.303  -0.106  1.00  0.00    +0.119 C 
ATOM      6  C   UNL     1      -2.116   2.268   0.452  1.00  0.00    +0.067 C 
ATOM      7  C   UNL     1      -1.353   0.970   0.600  1.00  0.00    +0.133 C 
ATOM      8  N   UNL     1      -0.105   0.853   0.191  1.00  0.00    -0.209 NA
ATOM      9  C   UNL     1       0.494   1.947  -0.373  1.00  0.00    +0.181 A 
ENDROOT
BRANCH   1  10
ATOM     10  N   UNL     1       2.711   1.131  -0.910  1.00  0.00    -0.303 N 
ATOM     11  O   UNL     1       4.383   2.268  -2.006  1.00  0.00    -0.248 OA
ATOM     12  C   UNL     1       3.964   1.254  -1.453  1.00  0.00    +0.322 C 
ATOM     13  H   UNL     1       2.396   0.241  -0.553  1.00  0.00    +0.172 HD
BRANCH  12  14
ATOM     14  N   UNL     1       4.753   0.130  -1.332  1.00  0.00    -0.322 N 
ATOM     15  C   UNL     1       6.094   0.101  -1.886  1.00  0.00    +0.124 C 
ATOM     16  C   UNL     1       4.460  -1.098  -0.605  1.00  0.00    +0.153 C 
ATOM     17  C   UNL     1       6.501  -1.362  -1.818  1.00  0.00    +0.055 C 
ATOM     18  C   UNL     1       5.790  -1.854  -0.562  1.00  0.00    +0.135 C 
BRANCH  18  19
ATOM     19  O   UNL     1       5.602  -3.258  -0.589  1.00  0.00    -0.391 OA
ATOM     20  H   UNL     1       6.480  -3.670  -0.668  1.00  0.00    +0.211 HD
ENDBRANCH  18  19
ENDBRANCH  12  14
ENDBRANCH   1  10
BRANCH   7  21
ATOM     21  N   UNL     1      -1.953  -0.145   1.167  1.00  0.00    -0.349 N 
ATOM     22  C   UNL     1      -1.194  -1.370   1.429  1.00  0.00    +0.119 C 
ATOM     23  C   UNL     1      -3.241  -0.169   1.869  1.00  0.00    +0.117 C 
ATOM     24  C   UNL     1      -2.210  -2.333   2.026  1.00  0.00    +0.024 C 
ATOM     25  C   UNL     1      -3.142  -1.403   2.783  1.00  0.00    +0.032 C 
BRANCH  23  26
ATOM     26  C   UNL     1      -4.422  -0.261   0.924  1.00  0.00    +0.013 A 
ATOM     27  C   UNL     1      -4.320  -0.712  -0.401  1.00  0.00    +0.048 A 
ATOM     28  C   UNL     1      -5.691   0.103   1.397  1.00  0.00    +0.128 A 
ATOM     29  C   UNL     1      -5.454  -0.780  -1.208  1.00  0.00    +0.123 A 
ATOM     30  C   UNL     1      -6.824   0.035   0.589  1.00  0.00    +0.042 A 
ATOM     31  C   UNL     1      -6.705  -0.411  -0.725  1.00  0.00    +0.042 A 
ATOM     32  F   UNL     1      -5.828   0.530   2.661  1.00  0.00    -0.207 F 
ATOM     33  F   UNL     1      -5.339  -1.213  -2.470  1.00  0.00    -0.207 F 
ENDBRANCH  23  26
ENDBRANCH   7  21
TORSDOF 5
