REMARK SMILES COc1cc2c(Oc3ccc(NC(=O)NC4CC4)c(Cl)c3)ccnc2cc1C(N)=O
REMARK SMILES IDX 7 1 6 2 3 3 4 4 27 5 5 6 26 7 25 8 22 9 24 10 23 11 2 12
REMARK SMILES IDX 1 13 28 14 30 15 29 16 8 19 9 20 21 21 10 22 19 23 11 24
REMARK SMILES IDX 20 25 12 26 13 27 14 28 15 29 16 32 17 33 18 34
REMARK H PARENT 29 17 29 18 12 30 15 31
ROOT
ATOM      1  O   UNL     1       1.092   0.488  -0.718  1.00  0.00    -0.457 OA
ENDROOT
BRANCH   1   2
ATOM      2  C   UNL     1       1.856  -0.486  -0.053  1.00  0.00    +0.138 A 
ATOM      3  C   UNL     1       5.333   0.509  -1.027  1.00  0.00    +0.132 A 
ATOM      4  C   UNL     1       3.928   0.519  -0.917  1.00  0.00    +0.061 A 
ATOM      5  C   UNL     1       6.072  -0.516  -0.405  1.00  0.00    +0.083 A 
ATOM      6  C   UNL     1       3.261  -0.474  -0.180  1.00  0.00    +0.047 A 
ATOM      7  C   UNL     1       5.403  -1.517   0.313  1.00  0.00    +0.046 A 
ATOM      8  C   UNL     1       4.014  -1.492   0.443  1.00  0.00    +0.075 A 
ATOM      9  C   UNL     1       1.250  -1.500   0.712  1.00  0.00    +0.068 A 
ATOM     10  N   UNL     1       3.388  -2.462   1.159  1.00  0.00    -0.256 NA
ATOM     11  C   UNL     1       2.038  -2.481   1.315  1.00  0.00    +0.115 A 
BRANCH   3  12
ATOM     12  O   UNL     1       6.016   1.476  -1.784  1.00  0.00    -0.496 OA
ATOM     13  C   UNL     1       5.386   2.551  -2.476  1.00  0.00    +0.278 C 
ENDBRANCH   3  12
BRANCH   5  14
ATOM     14  C   UNL     1       7.544  -0.573  -0.514  1.00  0.00    +0.252 C 
ATOM     15  O   UNL     1       8.109  -1.679  -0.713  1.00  0.00    -0.269 OA
ATOM     16  N   UNL     1       8.339   0.600  -0.356  1.00  0.00    -0.365 N 
ATOM     17  H   UNL     1       9.376   0.552  -0.481  1.00  0.00    +0.159 HD
ATOM     18  H   UNL     1       7.909   1.508  -0.064  1.00  0.00    +0.159 HD
ENDBRANCH   5  14
ENDBRANCH   1   2
BRANCH   1  19
ATOM     19  C   UNL     1      -0.291   0.636  -0.580  1.00  0.00    +0.129 A 
ATOM     20  C   UNL     1      -1.112   0.430  -1.693  1.00  0.00    +0.049 A 
ATOM     21  C   UNL     1      -0.861   1.004   0.647  1.00  0.00    +0.069 A 
ATOM     22  C   UNL     1      -2.497   0.518  -1.566  1.00  0.00    +0.031 A 
ATOM     23  C   UNL     1      -2.253   1.109   0.774  1.00  0.00    +0.068 A 
ATOM     24  C   UNL     1      -3.081   0.828  -0.334  1.00  0.00    +0.061 A 
ATOM     25 Cl   UNL     1      -2.921   1.647   2.306  1.00  0.00    -0.082 Cl
BRANCH  24  26
ATOM     26  N   UNL     1      -4.511   0.854  -0.230  1.00  0.00    -0.307 N 
ATOM     27  C   UNL     1      -5.236  -0.047   0.624  1.00  0.00    +0.319 C 
ATOM     28  O   UNL     1      -4.627  -0.801   1.421  1.00  0.00    -0.248 OA
ATOM     29  N   UNL     1      -6.661  -0.122   0.522  1.00  0.00    -0.335 N 
ATOM     30  H   UNL     1      -5.040   1.339  -0.979  1.00  0.00    +0.171 HD
ATOM     31  H   UNL     1      -7.148   0.498  -0.159  1.00  0.00    +0.165 HD
BRANCH  29  32
ATOM     32  C   UNL     1      -7.424  -1.070   1.332  1.00  0.00    +0.084 C 
ATOM     33  C   UNL     1      -8.931  -0.892   1.248  1.00  0.00    +0.027 C 
ATOM     34  C   UNL     1      -8.176  -0.426   2.485  1.00  0.00    +0.027 C 
ENDBRANCH  29  32
ENDBRANCH  24  26
ENDBRANCH   1  19
TORSDOF 6
