REMARK SMILES O=NN(CCCl)C(=O)NC1CCCCC1
REMARK SMILES IDX 3 1 2 2 1 3 4 4 5 5 6 6 7 7 8 8 9 9 10 11 11 12 15 13 12 14
REMARK SMILES IDX 14 15 13 16
REMARK H PARENT 9 10
ROOT
ATOM      1  N   UNL     1       2.489  -0.181  -0.704  1.00  0.00    -0.177 N 
ENDROOT
BRANCH   1   2
ATOM      2  N   UNL     1       2.197  -1.403  -1.517  1.00  0.00    +0.061 NA
ATOM      3  O   UNL     1       3.207  -2.039  -1.830  1.00  0.00    -0.125 OA
ENDBRANCH   1   2
BRANCH   1   4
ATOM      4  C   UNL     1       3.868   0.138  -0.344  1.00  0.00    +0.169 C 
BRANCH   4   5
ATOM      5  C   UNL     1       4.277  -0.535   0.959  1.00  0.00    +0.133 C 
ATOM      6 Cl   UNL     1       5.968  -0.152   1.360  1.00  0.00    -0.125 Cl
ENDBRANCH   4   5
ENDBRANCH   1   4
BRANCH   1   7
ATOM      7  C   UNL     1       1.450   0.572  -0.164  1.00  0.00    +0.340 C 
ATOM      8  O   UNL     1       1.651   1.515   0.600  1.00  0.00    -0.247 OA
ATOM      9  N   UNL     1       0.176   0.208  -0.546  1.00  0.00    -0.334 N 
ATOM     10  H   UNL     1       0.051  -0.721  -0.922  1.00  0.00    +0.165 HD
BRANCH   9  11
ATOM     11  C   UNL     1      -1.006   0.852   0.017  1.00  0.00    +0.083 C 
ATOM     12  C   UNL     1      -2.209   0.682  -0.927  1.00  0.00    +0.025 C 
ATOM     13  C   UNL     1      -1.279   0.314   1.434  1.00  0.00    +0.025 C 
ATOM     14  C   UNL     1      -3.039  -0.547  -0.574  1.00  0.00    +0.002 C 
ATOM     15  C   UNL     1      -2.757   0.382   1.794  1.00  0.00    +0.002 C 
ATOM     16  C   UNL     1      -3.610  -0.460   0.843  1.00  0.00    +0.000 C 
ENDBRANCH   9  11
ENDBRANCH   1   7
TORSDOF 5
