REMARK SMILES O=NN(CCCl)C(=O)NC1CCCCC1
REMARK SMILES IDX 3 1 2 2 1 3 4 4 5 5 6 6 7 7 8 8 9 9 10 11 11 12 15 13 12 14
REMARK SMILES IDX 14 15 13 16
REMARK H PARENT 9 10
ROOT
ATOM      1  N   UNL     1      -2.628  -0.767  -0.345  1.00  0.00    -0.177 N 
ENDROOT
BRANCH   1   2
ATOM      2  N   UNL     1      -2.680  -1.007  -1.821  1.00  0.00    +0.061 NA
ATOM      3  O   UNL     1      -3.828  -1.079  -2.268  1.00  0.00    -0.125 OA
ENDBRANCH   1   2
BRANCH   1   4
ATOM      4  C   UNL     1      -3.869  -0.623   0.410  1.00  0.00    +0.169 C 
BRANCH   4   5
ATOM      5  C   UNL     1      -4.347   0.823   0.434  1.00  0.00    +0.133 C 
ATOM      6 Cl   UNL     1      -5.874   0.965   1.338  1.00  0.00    -0.125 Cl
ENDBRANCH   4   5
ENDBRANCH   1   4
BRANCH   1   7
ATOM      7  C   UNL     1      -1.410  -0.533   0.289  1.00  0.00    +0.340 C 
ATOM      8  O   UNL     1      -1.339  -0.222   1.478  1.00  0.00    -0.247 OA
ATOM      9  N   UNL     1      -0.283  -0.683  -0.490  1.00  0.00    -0.334 N 
ATOM     10  H   UNL     1      -0.404  -0.645  -1.492  1.00  0.00    +0.165 HD
BRANCH   9  11
ATOM     11  C   UNL     1       1.047  -0.380   0.022  1.00  0.00    +0.083 C 
ATOM     12  C   UNL     1       1.324   1.125  -0.008  1.00  0.00    +0.025 C 
ATOM     13  C   UNL     1       2.113  -1.155  -0.770  1.00  0.00    +0.025 C 
ATOM     14  C   UNL     1       2.678   1.468   0.617  1.00  0.00    +0.002 C 
ATOM     15  C   UNL     1       3.493  -0.492  -0.752  1.00  0.00    +0.002 C 
ATOM     16  C   UNL     1       3.710   0.345   0.500  1.00  0.00    +0.000 C 
ENDBRANCH   9  11
ENDBRANCH   1   7
TORSDOF 5
