REMARK SMILES O=NN(CCCl)C(=O)NC1CCCCC1
REMARK SMILES IDX 3 1 2 2 1 3 4 4 5 5 6 6 7 7 8 8 9 9 10 11 11 12 15 13 12 14
REMARK SMILES IDX 14 15 13 16
REMARK H PARENT 9 10
ROOT
ATOM      1  N   UNL     1       2.113  -0.971  -0.364  1.00  0.00    -0.177 N 
ENDROOT
BRANCH   1   2
ATOM      2  N   UNL     1       1.698  -1.109  -1.798  1.00  0.00    +0.061 NA
ATOM      3  O   UNL     1       2.476  -1.792  -2.471  1.00  0.00    -0.125 OA
ENDBRANCH   1   2
BRANCH   1   4
ATOM      4  C   UNL     1       3.373  -1.561   0.080  1.00  0.00    +0.169 C 
BRANCH   4   5
ATOM      5  C   UNL     1       4.608  -0.796  -0.391  1.00  0.00    +0.133 C 
ATOM      6 Cl   UNL     1       4.711   0.835   0.317  1.00  0.00    -0.125 Cl
ENDBRANCH   4   5
ENDBRANCH   1   4
BRANCH   1   7
ATOM      7  C   UNL     1       1.321  -0.257   0.533  1.00  0.00    +0.340 C 
ATOM      8  O   UNL     1       1.614  -0.124   1.721  1.00  0.00    -0.247 OA
ATOM      9  N   UNL     1       0.176   0.306   0.006  1.00  0.00    -0.334 N 
ATOM     10  H   UNL     1      -0.170  -0.085  -0.858  1.00  0.00    +0.165 HD
BRANCH   9  11
ATOM     11  C   UNL     1      -0.786   1.014   0.845  1.00  0.00    +0.083 C 
ATOM     12  C   UNL     1      -1.609   2.003   0.009  1.00  0.00    +0.025 C 
ATOM     13  C   UNL     1      -1.698   0.034   1.600  1.00  0.00    +0.025 C 
ATOM     14  C   UNL     1      -2.629   1.314  -0.897  1.00  0.00    +0.002 C 
ATOM     15  C   UNL     1      -2.703  -0.657   0.680  1.00  0.00    +0.002 C 
ATOM     16  C   UNL     1      -3.521   0.353  -0.118  1.00  0.00    +0.000 C 
ENDBRANCH   9  11
ENDBRANCH   1   7
TORSDOF 5
