REMARK SMILES O=NN(CCCl)C(=O)NC1CCCCC1
REMARK SMILES IDX 3 1 2 2 1 3 4 4 5 5 6 6 7 7 8 8 9 9 10 11 11 12 15 13 12 14
REMARK SMILES IDX 14 15 13 16
REMARK H PARENT 9 10
ROOT
ATOM      1  N   UNL     1       2.646  -0.653  -0.650  1.00  0.00    -0.177 N 
ENDROOT
BRANCH   1   2
ATOM      2  N   UNL     1       3.064   0.426  -1.606  1.00  0.00    +0.061 NA
ATOM      3  O   UNL     1       2.173   1.208  -1.945  1.00  0.00    -0.125 OA
ENDBRANCH   1   2
BRANCH   1   4
ATOM      4  C   UNL     1       3.721  -1.532  -0.199  1.00  0.00    +0.169 C 
BRANCH   4   5
ATOM      5  C   UNL     1       4.169  -1.259   1.235  1.00  0.00    +0.133 C 
ATOM      6 Cl   UNL     1       5.015   0.304   1.376  1.00  0.00    -0.125 Cl
ENDBRANCH   4   5
ENDBRANCH   1   4
BRANCH   1   7
ATOM      7  C   UNL     1       1.360  -0.872  -0.162  1.00  0.00    +0.340 C 
ATOM      8  O   UNL     1       1.123  -1.772   0.647  1.00  0.00    -0.247 OA
ATOM      9  N   UNL     1       0.364  -0.060  -0.633  1.00  0.00    -0.334 N 
ATOM     10  H   UNL     1       0.667   0.790  -1.093  1.00  0.00    +0.165 HD
BRANCH   9  11
ATOM     11  C   UNL     1      -0.992  -0.095  -0.107  1.00  0.00    +0.083 C 
ATOM     12  C   UNL     1      -1.084   0.677   1.216  1.00  0.00    +0.025 C 
ATOM     13  C   UNL     1      -1.972   0.470  -1.141  1.00  0.00    +0.025 C 
ATOM     14  C   UNL     1      -2.514   0.716   1.749  1.00  0.00    +0.002 C 
ATOM     15  C   UNL     1      -3.401   0.506  -0.604  1.00  0.00    +0.002 C 
ATOM     16  C   UNL     1      -3.486   1.271   0.713  1.00  0.00    +0.000 C 
ENDBRANCH   9  11
ENDBRANCH   1   7
TORSDOF 5
