REMARK SMILES O=NN(CCCl)C(=O)NC1CCCCC1
REMARK SMILES IDX 3 1 2 2 1 3 4 4 5 5 6 6 7 7 8 8 9 9 10 11 11 12 15 13 12 14
REMARK SMILES IDX 14 15 13 16
REMARK H PARENT 9 10
ROOT
ATOM      1  N   UNL     1       2.465   0.210   1.142  1.00  0.00    -0.177 N 
ENDROOT
BRANCH   1   2
ATOM      2  N   UNL     1       3.454   0.323   2.139  1.00  0.00    +0.061 NA
ATOM      3  O   UNL     1       3.168   0.345   3.354  1.00  0.00    -0.125 OA
ENDBRANCH   1   2
BRANCH   1   4
ATOM      4  C   UNL     1       2.914   0.076  -0.245  1.00  0.00    +0.169 C 
BRANCH   4   5
ATOM      5  C   UNL     1       3.354  -1.358  -0.527  1.00  0.00    +0.133 C 
ATOM      6 Cl   UNL     1       3.847  -1.524  -2.230  1.00  0.00    -0.125 Cl
ENDBRANCH   4   5
ENDBRANCH   1   4
BRANCH   1   7
ATOM      7  C   UNL     1       1.060   0.251   1.473  1.00  0.00    +0.340 C 
ATOM      8  O   UNL     1       0.684   0.816   2.536  1.00  0.00    -0.247 OA
ATOM      9  N   UNL     1       0.081  -0.339   0.601  1.00  0.00    -0.334 N 
ATOM     10  H   UNL     1       0.407  -1.012  -0.127  1.00  0.00    +0.165 HD
BRANCH   9  11
ATOM     11  C   UNL     1      -1.360  -0.107   0.769  1.00  0.00    +0.083 C 
ATOM     12  C   UNL     1      -1.728   1.343   0.396  1.00  0.00    +0.025 C 
ATOM     13  C   UNL     1      -2.188  -1.108  -0.066  1.00  0.00    +0.025 C 
ATOM     14  C   UNL     1      -1.586   1.593  -1.111  1.00  0.00    +0.002 C 
ATOM     15  C   UNL     1      -2.085  -0.839  -1.576  1.00  0.00    +0.002 C 
ATOM     16  C   UNL     1      -2.449   0.612  -1.910  1.00  0.00    +0.000 C 
ENDBRANCH   9  11
ENDBRANCH   1   7
TORSDOF 5
