REMARK SMILES O=NN(CCCl)C(=O)NC1CCCCC1
REMARK SMILES IDX 3 1 2 2 1 3 4 4 5 5 6 6 7 7 8 8 9 9 10 11 11 12 15 13 12 14
REMARK SMILES IDX 14 15 13 16
REMARK H PARENT 9 10
ROOT
ATOM      1  N   UNL     1       2.573  -0.799   0.199  1.00  0.00    -0.177 N 
ENDROOT
BRANCH   1   2
ATOM      2  N   UNL     1       2.540  -2.156  -0.433  1.00  0.00    +0.061 NA
ATOM      3  O   UNL     1       3.637  -2.722  -0.439  1.00  0.00    -0.125 OA
ENDBRANCH   1   2
BRANCH   1   4
ATOM      4  C   UNL     1       3.846  -0.238   0.642  1.00  0.00    +0.169 C 
BRANCH   4   5
ATOM      5  C   UNL     1       4.571   0.480  -0.489  1.00  0.00    +0.133 C 
ATOM      6 Cl   UNL     1       6.129   1.130   0.077  1.00  0.00    -0.125 Cl
ENDBRANCH   4   5
ENDBRANCH   1   4
BRANCH   1   7
ATOM      7  C   UNL     1       1.442   0.013   0.169  1.00  0.00    +0.340 C 
ATOM      8  O   UNL     1       1.471   1.196   0.508  1.00  0.00    -0.247 OA
ATOM      9  N   UNL     1       0.288  -0.585  -0.291  1.00  0.00    -0.334 N 
ATOM     10  H   UNL     1       0.245  -1.592  -0.212  1.00  0.00    +0.165 HD
BRANCH   9  11
ATOM     11  C   UNL     1      -0.986   0.122  -0.300  1.00  0.00    +0.083 C 
ATOM     12  C   UNL     1      -1.934  -0.503  -1.336  1.00  0.00    +0.025 C 
ATOM     13  C   UNL     1      -1.625   0.136   1.092  1.00  0.00    +0.025 C 
ATOM     14  C   UNL     1      -3.417  -0.278  -1.027  1.00  0.00    +0.002 C 
ATOM     15  C   UNL     1      -2.916   0.958   1.118  1.00  0.00    +0.002 C 
ATOM     16  C   UNL     1      -3.647   0.994  -0.225  1.00  0.00    +0.000 C 
ENDBRANCH   9  11
ENDBRANCH   1   7
TORSDOF 5
