REMARK SMILES O=NN(CCCl)C(=O)NC1CCCCC1
REMARK SMILES IDX 3 1 2 2 1 3 4 4 5 5 6 6 7 7 8 8 9 9 10 11 11 12 15 13 12 14
REMARK SMILES IDX 14 15 13 16
REMARK H PARENT 9 10
ROOT
ATOM      1  N   UNL     1       2.411   0.135   1.376  1.00  0.00    -0.177 N 
ENDROOT
BRANCH   1   2
ATOM      2  N   UNL     1       3.336   0.058   2.437  1.00  0.00    +0.061 NA
ATOM      3  O   UNL     1       2.970  -0.125   3.616  1.00  0.00    -0.125 OA
ENDBRANCH   1   2
BRANCH   1   4
ATOM      4  C   UNL     1       2.941   0.200   0.011  1.00  0.00    +0.169 C 
BRANCH   4   5
ATOM      5  C   UNL     1       3.330  -1.194  -0.479  1.00  0.00    +0.133 C 
ATOM      6 Cl   UNL     1       3.976  -1.103  -2.137  1.00  0.00    -0.125 Cl
ENDBRANCH   4   5
ENDBRANCH   1   4
BRANCH   1   7
ATOM      7  C   UNL     1       0.992   0.215   1.630  1.00  0.00    +0.340 C 
ATOM      8  O   UNL     1       0.582   0.702   2.719  1.00  0.00    -0.247 OA
ATOM      9  N   UNL     1       0.042  -0.244   0.656  1.00  0.00    -0.334 N 
ATOM     10  H   UNL     1       0.390  -0.763  -0.179  1.00  0.00    +0.165 HD
BRANCH   9  11
ATOM     11  C   UNL     1      -1.377   0.129   0.711  1.00  0.00    +0.083 C 
ATOM     12  C   UNL     1      -1.599   1.486   0.017  1.00  0.00    +0.025 C 
ATOM     13  C   UNL     1      -2.265  -0.971   0.094  1.00  0.00    +0.025 C 
ATOM     14  C   UNL     1      -1.442   1.381  -1.507  1.00  0.00    +0.002 C 
ATOM     15  C   UNL     1      -2.155  -1.041  -1.440  1.00  0.00    +0.002 C 
ATOM     16  C   UNL     1      -2.399   0.331  -2.080  1.00  0.00    +0.000 C 
ENDBRANCH   9  11
ENDBRANCH   1   7
TORSDOF 5
