REMARK SMILES C[C@@]12OC(=O)[C@]1([C@@H](O)[C@@H]1C=CCCC1)NC(=O)[C@@H]2CCCl
REMARK SMILES IDX 1 1 2 2 3 3 4 4 5 5 6 6 15 7 16 8 17 9 18 10 7 12 8 13 9 15
REMARK SMILES IDX 10 16 14 17 11 18 13 19 12 20 19 21 20 22 21 23
REMARK H PARENT 15 11 8 14
ROOT
ATOM      1  C   UNL     1       1.827  -1.572   1.692  1.00  0.00    +0.061 C 
ATOM      2  C   UNL     1       1.703  -0.889   0.342  1.00  0.00    +0.157 C 
ATOM      3  O   UNL     1       1.616  -1.894  -0.714  1.00  0.00    -0.453 OA
ATOM      4  C   UNL     1       0.363  -1.510  -1.081  1.00  0.00    +0.339 C 
ATOM      5  O   UNL     1      -0.358  -2.032  -1.897  1.00  0.00    -0.249 OA
ATOM      6  C   UNL     1       0.367  -0.248  -0.162  1.00  0.00    +0.205 C 
ATOM      7  N   UNL     1       0.766   1.032  -0.812  1.00  0.00    -0.334 N 
ATOM      8  C   UNL     1       2.127   1.234  -0.826  1.00  0.00    +0.228 C 
ATOM      9  O   UNL     1       2.684   2.127  -1.436  1.00  0.00    -0.275 OA
ATOM     10  C   UNL     1       2.776   0.192   0.071  1.00  0.00    +0.126 C 
ATOM     11  H   UNL     1       0.220   1.539  -1.499  1.00  0.00    +0.164 HD
ENDROOT
BRANCH   6  12
ATOM     12  C   UNL     1      -0.767  -0.074   0.842  1.00  0.00    +0.162 C 
BRANCH  12  13
ATOM     13  O   UNL     1      -0.260   0.754   1.909  1.00  0.00    -0.389 OA
ATOM     14  H   UNL     1      -0.241   1.676   1.590  1.00  0.00    +0.211 HD
ENDBRANCH  12  13
BRANCH  12  15
ATOM     15  C   UNL     1      -2.052   0.588   0.263  1.00  0.00    +0.043 C 
ATOM     16  C   UNL     1      -3.107   0.728   1.348  1.00  0.00    -0.025 C 
ATOM     17  C   UNL     1      -2.616  -0.154  -0.962  1.00  0.00    +0.011 C 
ATOM     18  C   UNL     1      -4.413   0.489   1.158  1.00  0.00    -0.031 C 
ATOM     19  C   UNL     1      -4.024   0.319  -1.321  1.00  0.00    +0.005 C 
ATOM     20  C   UNL     1      -4.996   0.093  -0.165  1.00  0.00    +0.027 C 
ENDBRANCH  12  15
ENDBRANCH   6  12
BRANCH  10  21
ATOM     21  C   UNL     1       4.053  -0.399  -0.532  1.00  0.00    +0.034 C 
BRANCH  21  22
ATOM     22  C   UNL     1       5.230   0.572  -0.485  1.00  0.00    +0.110 C 
ATOM     23 Cl   UNL     1       6.715  -0.241  -1.038  1.00  0.00    -0.127 Cl
ENDBRANCH  21  22
ENDBRANCH  10  21
TORSDOF 5
