REMARK SMILES CC[C@]1(C)[C@@H](O)N2C(=O)[C@@H](CCCl)[C@@H]21
REMARK SMILES IDX 3 1 4 2 14 3 10 4 8 5 9 6 7 7 5 8 2 9 1 10 6 11 11 13 12 14
REMARK SMILES IDX 13 15
REMARK H PARENT 6 12
ROOT
ATOM      1  C   UNL     1      -1.131  -0.385  -0.043  1.00  0.00    +0.033 C 
ATOM      2  C   UNL     1      -2.027  -1.562  -0.493  1.00  0.00    +0.018 C 
ATOM      3  C   UNL     1       0.330  -0.843   0.106  1.00  0.00    +0.110 C 
ATOM      4  C   UNL     1       1.387   0.165  -0.022  1.00  0.00    +0.103 C 
ATOM      5  C   UNL     1       1.176   0.469   1.442  1.00  0.00    +0.230 C 
ATOM      6  O   UNL     1       1.562   1.372   2.230  1.00  0.00    -0.274 OA
ATOM      7  N   UNL     1       0.372  -0.783   1.580  1.00  0.00    -0.312 N 
ATOM      8  C   UNL     1      -1.005  -0.187   1.459  1.00  0.00    +0.222 C 
ENDROOT
BRANCH   1   9
ATOM      9  C   UNL     1      -1.403   0.929  -0.832  1.00  0.00    +0.010 C 
ATOM     10  C   UNL     1      -2.878   1.335  -0.827  1.00  0.00    +0.005 C 
ENDBRANCH   1   9
BRANCH   8  11
ATOM     11  O   UNL     1      -1.950  -0.941   2.186  1.00  0.00    -0.373 OA
ATOM     12  H   UNL     1      -1.600  -1.862   2.305  1.00  0.00    +0.213 HD
ENDBRANCH   8  11
BRANCH   4  13
ATOM     13  C   UNL     1       2.774  -0.453  -0.295  1.00  0.00    +0.032 C 
BRANCH  13  14
ATOM     14  C   UNL     1       3.893   0.592  -0.266  1.00  0.00    +0.110 C 
ATOM     15 Cl   UNL     1       3.771   1.715  -1.648  1.00  0.00    -0.127 Cl
ENDBRANCH  13  14
ENDBRANCH   4  13
TORSDOF 4
