REMARK SMILES C=CC(=O)[C@@]1(O)[C@@H](CC)C[C@@H](Cl)[C@@H]2[C@H](C)C(=O)N21
REMARK SMILES IDX 7 1 10 2 11 3 12 4 13 5 14 6 15 7 16 8 17 9 18 10 5 11 8 12
REMARK SMILES IDX 9 13 6 14 3 16 4 17 2 18 1 19
REMARK H PARENT 6 15
ROOT
ATOM      1  C   UNL     1      -0.675  -0.902   0.420  1.00  0.00    +0.052 C 
ATOM      2  C   UNL     1       0.198  -1.640  -0.643  1.00  0.00    +0.031 C 
ATOM      3  C   UNL     1       1.693  -1.280  -0.527  1.00  0.00    +0.105 C 
ATOM      4 Cl   UNL     1       2.628  -2.186  -1.746  1.00  0.00    -0.121 Cl
ATOM      5  C   UNL     1       1.867   0.232  -0.755  1.00  0.00    +0.118 C 
ATOM      6  C   UNL     1       3.006   0.949  -0.202  1.00  0.00    +0.100 C 
ATOM      7  C   UNL     1       4.007   0.177   0.666  1.00  0.00    +0.020 C 
ATOM      8  C   UNL     1       2.036   1.736   0.631  1.00  0.00    +0.230 C 
ATOM      9  O   UNL     1       2.130   2.680   1.460  1.00  0.00    -0.274 OA
ATOM     10  N   UNL     1       0.923   0.924   0.086  1.00  0.00    -0.302 N 
ATOM     11  C   UNL     1      -0.476   0.663   0.390  1.00  0.00    +0.207 C 
ENDROOT
BRANCH   1  12
ATOM     12  C   UNL     1      -2.167  -1.320   0.288  1.00  0.00    +0.006 C 
ATOM     13  C   UNL     1      -2.433  -2.740   0.788  1.00  0.00    +0.004 C 
ENDBRANCH   1  12
BRANCH  11  14
ATOM     14  O   UNL     1      -0.741   1.212   1.662  1.00  0.00    -0.364 OA
ATOM     15  H   UNL     1      -1.631   0.899   1.965  1.00  0.00    +0.214 HD
ENDBRANCH  11  14
BRANCH  11  16
ATOM     16  C   UNL     1      -1.316   1.337  -0.686  1.00  0.00    +0.207 C 
ATOM     17  O   UNL     1      -1.130   1.014  -1.892  1.00  0.00    -0.289 OA
BRANCH  16  18
ATOM     18  C   UNL     1      -2.330   2.369  -0.362  1.00  0.00    +0.045 C 
ATOM     19  C   UNL     1      -3.102   2.924  -1.295  1.00  0.00    +0.012 C 
ENDBRANCH  16  18
ENDBRANCH  11  16
TORSDOF 4
