REMARK SMILES C[C@@]12OC(=O)[C@]1([C@@H](O)[C@@H]1C=CCCC1)NC(=O)[C@@H]2CCCl
REMARK SMILES IDX 1 1 2 2 3 3 4 4 5 5 6 6 15 7 16 8 17 9 18 10 7 12 8 13 9 15
REMARK SMILES IDX 10 16 14 17 11 18 13 19 12 20 19 21 20 22 21 23
REMARK H PARENT 15 11 8 14
ROOT
ATOM      1  C   UNL     1       2.038   2.202  -0.171  1.00  0.00    +0.061 C 
ATOM      2  C   UNL     1       1.926   0.738   0.212  1.00  0.00    +0.157 C 
ATOM      3  O   UNL     1       2.235   0.565   1.632  1.00  0.00    -0.453 OA
ATOM      4  C   UNL     1       0.990   0.099   1.921  1.00  0.00    +0.339 C 
ATOM      5  O   UNL     1       0.516  -0.164   3.001  1.00  0.00    -0.249 OA
ATOM      6  C   UNL     1       0.551   0.037   0.430  1.00  0.00    +0.205 C 
ATOM      7  N   UNL     1       0.680  -1.296  -0.212  1.00  0.00    -0.334 N 
ATOM      8  C   UNL     1       1.924  -1.528  -0.748  1.00  0.00    +0.228 C 
ATOM      9  O   UNL     1       2.302  -2.599  -1.187  1.00  0.00    -0.275 OA
ATOM     10  C   UNL     1       2.707  -0.226  -0.713  1.00  0.00    +0.126 C 
ATOM     11  H   UNL     1       0.089  -2.099  -0.034  1.00  0.00    +0.164 HD
ENDROOT
BRANCH   6  12
ATOM     12  C   UNL     1      -0.733   0.787   0.091  1.00  0.00    +0.162 C 
BRANCH  12  13
ATOM     13  O   UNL     1      -0.756   1.066  -1.314  1.00  0.00    -0.389 OA
ATOM     14  H   UNL     1      -1.680   1.242  -1.572  1.00  0.00    +0.211 HD
ENDBRANCH  12  13
BRANCH  12  15
ATOM     15  C   UNL     1      -2.012   0.032   0.564  1.00  0.00    +0.043 C 
ATOM     16  C   UNL     1      -2.575  -0.932  -0.462  1.00  0.00    -0.025 C 
ATOM     17  C   UNL     1      -3.084   1.062   0.991  1.00  0.00    +0.011 C 
ATOM     18  C   UNL     1      -3.887  -1.076  -0.704  1.00  0.00    -0.031 C 
ATOM     19  C   UNL     1      -4.426   0.391   1.275  1.00  0.00    +0.005 C 
ATOM     20  C   UNL     1      -4.956  -0.329   0.036  1.00  0.00    +0.027 C 
ENDBRANCH  12  15
ENDBRANCH   6  12
BRANCH  10  21
ATOM     21  C   UNL     1       4.157  -0.413  -0.258  1.00  0.00    +0.034 C 
BRANCH  21  22
ATOM     22  C   UNL     1       5.027  -1.073  -1.325  1.00  0.00    +0.110 C 
ATOM     23 Cl   UNL     1       6.730  -1.089  -0.799  1.00  0.00    -0.127 Cl
ENDBRANCH  21  22
ENDBRANCH  10  21
TORSDOF 5
