REMARK SMILES C[C@@]12OC(=O)[C@]1([C@@H](O)[C@@H]1C=CCCC1)NC(=O)[C@@H]2CCCl
REMARK SMILES IDX 1 1 2 2 3 3 4 4 5 5 6 6 15 7 16 8 17 9 18 10 7 12 8 13 9 15
REMARK SMILES IDX 10 16 14 17 11 18 13 19 12 20 19 21 20 22 21 23
REMARK H PARENT 15 11 8 14
ROOT
ATOM      1  C   UNL     1       1.242   2.245   0.796  1.00  0.00    +0.061 C 
ATOM      2  C   UNL     1       1.622   0.824   0.424  1.00  0.00    +0.157 C 
ATOM      3  O   UNL     1       2.035   0.086   1.616  1.00  0.00    -0.453 OA
ATOM      4  C   UNL     1       1.037  -0.828   1.487  1.00  0.00    +0.339 C 
ATOM      5  O   UNL     1       0.753  -1.739   2.230  1.00  0.00    -0.249 OA
ATOM      6  C   UNL     1       0.553  -0.268   0.122  1.00  0.00    +0.205 C 
ATOM      7  N   UNL     1       1.058  -0.991  -1.076  1.00  0.00    -0.334 N 
ATOM      8  C   UNL     1       2.266  -0.529  -1.535  1.00  0.00    +0.228 C 
ATOM      9  O   UNL     1       2.907  -1.034  -2.439  1.00  0.00    -0.275 OA
ATOM     10  C   UNL     1       2.628   0.721  -0.749  1.00  0.00    +0.126 C 
ATOM     11  H   UNL     1       0.680  -1.844  -1.468  1.00  0.00    +0.164 HD
ENDROOT
BRANCH   6  12
ATOM     12  C   UNL     1      -0.917   0.131   0.019  1.00  0.00    +0.162 C 
BRANCH  12  13
ATOM     13  O   UNL     1      -1.061   0.925  -1.167  1.00  0.00    -0.389 OA
ATOM     14  H   UNL     1      -2.006   1.152  -1.255  1.00  0.00    +0.211 HD
ENDBRANCH  12  13
BRANCH  12  15
ATOM     15  C   UNL     1      -1.849  -1.126   0.025  1.00  0.00    +0.043 C 
ATOM     16  C   UNL     1      -2.885  -1.117  -1.079  1.00  0.00    -0.025 C 
ATOM     17  C   UNL     1      -2.516  -1.317   1.408  1.00  0.00    +0.011 C 
ATOM     18  C   UNL     1      -4.201  -0.966  -0.869  1.00  0.00    -0.031 C 
ATOM     19  C   UNL     1      -3.766  -0.452   1.566  1.00  0.00    +0.005 C 
ATOM     20  C   UNL     1      -4.805  -0.768   0.489  1.00  0.00    +0.027 C 
ENDBRANCH  12  15
ENDBRANCH   6  12
BRANCH  10  21
ATOM     21  C   UNL     1       4.081   0.721  -0.265  1.00  0.00    +0.034 C 
BRANCH  21  22
ATOM     22  C   UNL     1       5.079   0.953  -1.396  1.00  0.00    +0.110 C 
ATOM     23 Cl   UNL     1       6.723   1.134  -0.733  1.00  0.00    -0.127 Cl
ENDBRANCH  21  22
ENDBRANCH  10  21
TORSDOF 5
