REMARK SMILES C[C@@]12OC(=O)[C@]1([C@@H](O)[C@@H]1C=CCCC1)NC(=O)[C@@H]2CCCl
REMARK SMILES IDX 1 1 2 2 3 3 4 4 5 5 6 6 15 7 16 8 17 9 18 10 7 12 8 13 9 15
REMARK SMILES IDX 10 16 14 17 11 18 13 19 12 20 19 21 20 22 21 23
REMARK H PARENT 15 11 8 14
ROOT
ATOM      1  C   UNL     1       1.750  -2.013   0.109  1.00  0.00    +0.061 C 
ATOM      2  C   UNL     1       1.669  -0.555  -0.309  1.00  0.00    +0.157 C 
ATOM      3  O   UNL     1       1.485  -0.462  -1.753  1.00  0.00    -0.453 OA
ATOM      4  C   UNL     1       0.283   0.163  -1.641  1.00  0.00    +0.339 C 
ATOM      5  O   UNL     1      -0.463   0.477  -2.539  1.00  0.00    -0.249 OA
ATOM      6  C   UNL     1       0.363   0.285  -0.084  1.00  0.00    +0.205 C 
ATOM      7  N   UNL     1       0.831   1.587   0.448  1.00  0.00    -0.334 N 
ATOM      8  C   UNL     1       2.193   1.683   0.582  1.00  0.00    +0.228 C 
ATOM      9  O   UNL     1       2.782   2.691   0.932  1.00  0.00    -0.275 OA
ATOM     10  C   UNL     1       2.815   0.342   0.219  1.00  0.00    +0.126 C 
ATOM     11  H   UNL     1       0.272   2.415   0.606  1.00  0.00    +0.164 HD
ENDROOT
BRANCH   6  12
ATOM     12  C   UNL     1      -0.787  -0.326   0.718  1.00  0.00    +0.162 C 
BRANCH  12  13
ATOM     13  O   UNL     1      -0.239  -0.734   1.987  1.00  0.00    -0.389 OA
ATOM     14  H   UNL     1      -0.909  -1.282   2.434  1.00  0.00    +0.211 HD
ENDBRANCH  12  13
BRANCH  12  15
ATOM     15  C   UNL     1      -1.976   0.643   0.989  1.00  0.00    +0.043 C 
ATOM     16  C   UNL     1      -3.070  -0.084   1.755  1.00  0.00    -0.025 C 
ATOM     17  C   UNL     1      -2.587   1.301  -0.262  1.00  0.00    +0.011 C 
ATOM     18  C   UNL     1      -4.233  -0.468   1.206  1.00  0.00    -0.031 C 
ATOM     19  C   UNL     1      -3.432   0.315  -1.067  1.00  0.00    +0.005 C 
ATOM     20  C   UNL     1      -4.594  -0.227  -0.231  1.00  0.00    +0.027 C 
ENDBRANCH  12  15
ENDBRANCH   6  12
BRANCH  10  21
ATOM     21  C   UNL     1       3.959   0.574  -0.779  1.00  0.00    +0.034 C 
BRANCH  21  22
ATOM     22  C   UNL     1       4.730  -0.665  -1.217  1.00  0.00    +0.110 C 
ATOM     23 Cl   UNL     1       5.501  -1.489   0.156  1.00  0.00    -0.127 Cl
ENDBRANCH  21  22
ENDBRANCH  10  21
TORSDOF 5
