REMARK SMILES C[C@@]12OC(=O)[C@]1([C@@H](O)[C@@H]1C=CCCC1)NC(=O)[C@@H]2CCCl
REMARK SMILES IDX 1 1 2 2 3 3 4 4 5 5 6 6 15 7 16 8 17 9 18 10 7 12 8 13 9 15
REMARK SMILES IDX 10 16 14 17 11 18 13 19 12 20 19 21 20 22 21 23
REMARK H PARENT 15 11 8 14
ROOT
ATOM      1  C   UNL     1       1.995   2.139   0.023  1.00  0.00    +0.061 C 
ATOM      2  C   UNL     1       1.816   0.729   0.555  1.00  0.00    +0.157 C 
ATOM      3  O   UNL     1       2.039   0.702   2.000  1.00  0.00    -0.453 OA
ATOM      4  C   UNL     1       0.772   0.287   2.263  1.00  0.00    +0.339 C 
ATOM      5  O   UNL     1       0.245   0.122   3.338  1.00  0.00    -0.249 OA
ATOM      6  C   UNL     1       0.409   0.085   0.767  1.00  0.00    +0.205 C 
ATOM      7  N   UNL     1       0.540  -1.310   0.251  1.00  0.00    -0.334 N 
ATOM      8  C   UNL     1       1.815  -1.624  -0.161  1.00  0.00    +0.228 C 
ATOM      9  O   UNL     1       2.194  -2.746  -0.440  1.00  0.00    -0.275 OA
ATOM     10  C   UNL     1       2.626  -0.341  -0.214  1.00  0.00    +0.126 C 
ATOM     11  H   UNL     1      -0.079  -2.083   0.461  1.00  0.00    +0.164 HD
ENDROOT
BRANCH   6  12
ATOM     12  C   UNL     1      -0.820   0.817   0.240  1.00  0.00    +0.162 C 
BRANCH  12  13
ATOM     13  O   UNL     1      -0.911   0.601  -1.172  1.00  0.00    -0.389 OA
ATOM     14  H   UNL     1      -1.168  -0.330  -1.306  1.00  0.00    +0.211 HD
ENDBRANCH  12  13
BRANCH  12  15
ATOM     15  C   UNL     1      -2.148   0.471   0.977  1.00  0.00    +0.043 C 
ATOM     16  C   UNL     1      -2.504  -0.998   0.976  1.00  0.00    -0.025 C 
ATOM     17  C   UNL     1      -3.330   1.322   0.450  1.00  0.00    +0.011 C 
ATOM     18  C   UNL     1      -3.537  -1.518   0.299  1.00  0.00    -0.031 C 
ATOM     19  C   UNL     1      -4.008   0.727  -0.785  1.00  0.00    +0.005 C 
ATOM     20  C   UNL     1      -4.472  -0.710  -0.550  1.00  0.00    +0.027 C 
ENDBRANCH  12  15
ENDBRANCH   6  12
BRANCH  10  21
ATOM     21  C   UNL     1       4.035  -0.527   0.362  1.00  0.00    +0.034 C 
BRANCH  21  22
ATOM     22  C   UNL     1       5.011  -1.214  -0.592  1.00  0.00    +0.110 C 
ATOM     23 Cl   UNL     1       5.389  -0.175  -1.989  1.00  0.00    -0.127 Cl
ENDBRANCH  21  22
ENDBRANCH  10  21
TORSDOF 5
