REMARK SMILES Cc1ncc(CN)c(CNC(=O)N(CCCl)N=O)n1
REMARK SMILES IDX 10 1 11 2 12 3 9 5 8 6 2 7 3 8 19 9 4 10 5 11 1 12 6 13 7 14
REMARK SMILES IDX 13 17 14 18 15 19 16 20 17 21 18 22
REMARK H PARENT 10 4 7 15 7 16
ROOT
ATOM      1  N   UNL     1       0.688   0.674  -1.350  1.00  0.00    -0.331 N 
ATOM      2  C   UNL     1       1.668   0.135  -0.452  1.00  0.00    +0.340 C 
ATOM      3  O   UNL     1       1.403  -0.906   0.210  1.00  0.00    -0.247 OA
ATOM      4  H   UNL     1       0.843   1.617  -1.774  1.00  0.00    +0.165 HD
ENDROOT
BRANCH   1   5
ATOM      5  C   UNL     1      -0.557  -0.027  -1.661  1.00  0.00    +0.174 C 
BRANCH   5   6
ATOM      6  C   UNL     1      -1.508   0.054  -0.492  1.00  0.00    +0.068 A 
ATOM      7  C   UNL     1      -2.691   1.466   1.008  1.00  0.00    +0.125 A 
ATOM      8  N   UNL     1      -3.280   0.388   1.584  1.00  0.00    -0.241 NA
ATOM      9  N   UNL     1      -1.832   1.292  -0.028  1.00  0.00    -0.236 NA
ATOM     10  C   UNL     1      -3.001  -0.871   1.161  1.00  0.00    +0.120 A 
ATOM     11  C   UNL     1      -2.094  -1.084   0.113  1.00  0.00    +0.007 A 
ATOM     12  C   UNL     1      -3.041   2.843   1.464  1.00  0.00    +0.089 C 
BRANCH  11  13
ATOM     13  C   UNL     1      -1.815  -2.496  -0.345  1.00  0.00    +0.117 C 
BRANCH  13  14
ATOM     14  N   UNL     1      -2.435  -2.733  -1.646  1.00  0.00    -0.326 NA
ATOM     15  H   UNL     1      -2.165  -3.694  -1.960  1.00  0.00    +0.119 HD
ATOM     16  H   UNL     1      -3.473  -2.740  -1.519  1.00  0.00    +0.119 HD
ENDBRANCH  13  14
ENDBRANCH  11  13
ENDBRANCH   5   6
ENDBRANCH   1   5
BRANCH   2  17
ATOM     17  N   UNL     1       2.936   0.796  -0.266  1.00  0.00    -0.177 N 
BRANCH  17  18
ATOM     18  C   UNL     1       3.616   0.751   1.034  1.00  0.00    +0.169 C 
BRANCH  18  19
ATOM     19  C   UNL     1       4.865  -0.131   0.971  1.00  0.00    +0.133 C 
ATOM     20 Cl   UNL     1       4.439  -1.840   0.678  1.00  0.00    -0.125 Cl
ENDBRANCH  18  19
ENDBRANCH  17  18
BRANCH  17  21
ATOM     21  N   UNL     1       3.568   1.484  -1.319  1.00  0.00    +0.061 NA
ATOM     22  O   UNL     1       3.216   1.329  -2.510  1.00  0.00    -0.125 OA
ENDBRANCH  17  21
ENDBRANCH   2  17
TORSDOF 8
