REMARK SMILES Cc1cc(NC(=O)N(CCCl)N=O)c(CN)cn1
REMARK SMILES IDX 5 1 6 2 7 3 4 5 2 6 18 7 3 8 17 9 14 10 1 11 15 12 16 13
REMARK SMILES IDX 8 16 9 17 10 18 11 19 12 20 13 21
REMARK H PARENT 5 4 16 14 16 15
ROOT
ATOM      1  N   UNL     1       0.208   0.474  -1.089  1.00  0.00    -0.306 N 
ATOM      2  C   UNL     1       1.310   0.122  -0.242  1.00  0.00    +0.344 C 
ATOM      3  O   UNL     1       1.137   0.033   1.005  1.00  0.00    -0.246 OA
ATOM      4  H   UNL     1       0.413   0.926  -2.012  1.00  0.00    +0.171 HD
ENDROOT
BRANCH   1   5
ATOM      5  C   UNL     1      -1.139   0.525  -0.600  1.00  0.00    +0.050 A 
ATOM      6  C   UNL     1      -3.101   1.837  -0.053  1.00  0.00    +0.039 A 
ATOM      7  N   UNL     1      -3.730   0.700   0.358  1.00  0.00    -0.261 NA
ATOM      8  C   UNL     1      -1.793   1.765  -0.543  1.00  0.00    +0.050 A 
ATOM      9  C   UNL     1      -3.132  -0.523   0.292  1.00  0.00    +0.118 A 
ATOM     10  C   UNL     1      -1.826  -0.649  -0.209  1.00  0.00    +0.008 A 
ATOM     11  C   UNL     1      -3.800   3.159   0.042  1.00  0.00    +0.067 C 
BRANCH  10  12
ATOM     12  C   UNL     1      -1.209  -2.022  -0.330  1.00  0.00    +0.117 C 
BRANCH  12  13
ATOM     13  N   UNL     1      -0.537  -2.387   0.915  1.00  0.00    -0.326 NA
ATOM     14  H   UNL     1      -1.271  -2.628   1.626  1.00  0.00    +0.119 HD
ATOM     15  H   UNL     1       0.013  -3.262   0.737  1.00  0.00    +0.119 HD
ENDBRANCH  12  13
ENDBRANCH  10  12
ENDBRANCH   1   5
BRANCH   2  16
ATOM     16  N   UNL     1       2.625  -0.070  -0.799  1.00  0.00    -0.177 N 
BRANCH  16  17
ATOM     17  C   UNL     1       3.821   0.267  -0.021  1.00  0.00    +0.169 C 
BRANCH  17  18
ATOM     18  C   UNL     1       4.602  -0.990   0.363  1.00  0.00    +0.133 C 
ATOM     19 Cl   UNL     1       3.648  -2.040   1.443  1.00  0.00    -0.125 Cl
ENDBRANCH  17  18
ENDBRANCH  16  17
BRANCH  16  20
ATOM     20  N   UNL     1       2.800  -0.567  -2.104  1.00  0.00    +0.061 NA
ATOM     21  O   UNL     1       1.865  -1.114  -2.729  1.00  0.00    -0.125 OA
ENDBRANCH  16  20
ENDBRANCH   2  16
TORSDOF 7
