REMARK SMILES Cc1ncc(CNC(=O)N(CCCl)N=O)c(N)n1
REMARK SMILES IDX 7 1 8 2 9 3 6 5 5 6 2 7 3 8 18 9 4 10 16 11 1 12 17 13 10 16
REMARK SMILES IDX 11 17 12 18 13 19 14 20 15 21
REMARK H PARENT 7 4 17 14 17 15
ROOT
ATOM      1  N   UNL     1      -0.688  -0.324   0.047  1.00  0.00    -0.332 N 
ATOM      2  C   UNL     1      -2.004  -0.723   0.064  1.00  0.00    +0.340 C 
ATOM      3  O   UNL     1      -2.325  -1.888  -0.174  1.00  0.00    -0.247 OA
ATOM      4  H   UNL     1      -0.453   0.459   0.647  1.00  0.00    +0.165 HD
ENDROOT
BRANCH   1   5
ATOM      5  C   UNL     1       0.362  -1.304  -0.122  1.00  0.00    +0.159 C 
BRANCH   5   6
ATOM      6  C   UNL     1       1.703  -0.665  -0.265  1.00  0.00    +0.032 A 
ATOM      7  C   UNL     1       4.114   0.523  -0.608  1.00  0.00    +0.127 A 
ATOM      8  N   UNL     1       3.609  -0.163  -1.646  1.00  0.00    -0.241 NA
ATOM      9  N   UNL     1       3.517   0.644   0.591  1.00  0.00    -0.216 NA
ATOM     10  C   UNL     1       2.406  -0.733  -1.451  1.00  0.00    +0.122 A 
ATOM     11  C   UNL     1       2.328   0.047   0.743  1.00  0.00    +0.132 A 
ATOM     12  C   UNL     1       5.458   1.158  -0.782  1.00  0.00    +0.090 C 
BRANCH  11  13
ATOM     13  N   UNL     1       1.730   0.225   1.993  1.00  0.00    -0.383 N 
ATOM     14  H   UNL     1       1.537  -0.665   2.441  1.00  0.00    +0.158 HD
ATOM     15  H   UNL     1       2.390   0.767   2.549  1.00  0.00    +0.158 HD
ENDBRANCH  11  13
ENDBRANCH   5   6
ENDBRANCH   1   5
BRANCH   2  16
ATOM     16  N   UNL     1      -2.938   0.271   0.340  1.00  0.00    -0.177 N 
BRANCH  16  17
ATOM     17  C   UNL     1      -4.360  -0.057   0.340  1.00  0.00    +0.169 C 
BRANCH  17  18
ATOM     18  C   UNL     1      -4.952  -0.000  -1.063  1.00  0.00    +0.133 C 
ATOM     19 Cl   UNL     1      -6.687  -0.398  -1.026  1.00  0.00    -0.125 Cl
ENDBRANCH  17  18
ENDBRANCH  16  17
BRANCH  16  20
ATOM     20  N   UNL     1      -2.505   1.703   0.407  1.00  0.00    +0.061 NA
ATOM     21  O   UNL     1      -3.445   2.492   0.543  1.00  0.00    -0.125 OA
ENDBRANCH  16  20
ENDBRANCH   2  16
TORSDOF 7
