REMARK SMILES CC(=O)c1c(C)c2cnc(Nc3ccc(N4CCNCC4)cn3)nc2n(C2CCCC2)c1=O
REMARK SMILES IDX 11 1 10 3 4 4 5 5 32 6 7 7 26 8 33 9 8 10 25 11 9 12 24 13
REMARK SMILES IDX 6 14 2 15 3 16 1 17 27 18 28 19 31 20 29 21 30 22 12 23
REMARK SMILES IDX 13 24 23 25 14 26 22 27 15 28 16 29 17 30 21 31 18 32 20 33
REMARK SMILES IDX 19 34
REMARK H PARENT 11 2 19 35
ROOT
ATOM      1  N   UNL     1       0.873   0.634   0.023  1.00  0.00    -0.309 N 
ATOM      2  H   UNL     1       0.614   1.578  -0.214  1.00  0.00    +0.171 HD
ENDROOT
BRANCH   1   3
ATOM      3  C   UNL     1      -0.218  -0.202   0.149  1.00  0.00    +0.230 A 
ATOM      4  C   UNL     1      -4.899  -1.925   0.259  1.00  0.00    +0.086 C 
ATOM      5  C   UNL     1      -3.716  -2.549   0.439  1.00  0.00    -0.022 C 
ATOM      6  C   UNL     1      -4.975  -0.472  -0.076  1.00  0.00    +0.263 C 
ATOM      7  C   UNL     1      -2.489  -1.736   0.348  1.00  0.00    +0.040 A 
ATOM      8  N   UNL     1      -3.789   0.244  -0.154  1.00  0.00    -0.289 N 
ATOM      9  O   UNL     1      -6.082   0.030  -0.270  1.00  0.00    -0.268 OA
ATOM     10  C   UNL     1      -1.214  -2.227   0.550  1.00  0.00    +0.127 A 
ATOM     11  C   UNL     1      -2.528  -0.385   0.050  1.00  0.00    +0.148 A 
ATOM     12  N   UNL     1      -0.086  -1.495   0.455  1.00  0.00    -0.221 NA
ATOM     13  N   UNL     1      -1.412   0.369  -0.056  1.00  0.00    -0.194 NA
ATOM     14  C   UNL     1      -3.557  -4.026   0.708  1.00  0.00    +0.046 C 
BRANCH   4  15
ATOM     15  C   UNL     1      -6.177  -2.688   0.391  1.00  0.00    +0.165 C 
ATOM     16  O   UNL     1      -6.402  -3.364   1.395  1.00  0.00    -0.294 OA
ATOM     17  C   UNL     1      -7.169  -2.616  -0.741  1.00  0.00    +0.094 C 
ENDBRANCH   4  15
BRANCH   8  18
ATOM     18  C   UNL     1      -3.812   1.679  -0.488  1.00  0.00    +0.092 C 
ATOM     19  C   UNL     1      -4.691   2.541   0.444  1.00  0.00    +0.025 C 
ATOM     20  C   UNL     1      -4.305   1.965  -1.916  1.00  0.00    +0.025 C 
ATOM     21  C   UNL     1      -5.667   3.280  -0.469  1.00  0.00    +0.002 C 
ATOM     22  C   UNL     1      -4.959   3.334  -1.813  1.00  0.00    +0.002 C 
ENDBRANCH   8  18
ENDBRANCH   1   3
BRANCH   1  23
ATOM     23  C   UNL     1       2.240   0.480   0.147  1.00  0.00    +0.132 A 
ATOM     24  C   UNL     1       2.871  -0.709   0.478  1.00  0.00    +0.049 A 
ATOM     25  N   UNL     1       2.959   1.599  -0.076  1.00  0.00    -0.237 NA
ATOM     26  C   UNL     1       4.268  -0.753   0.574  1.00  0.00    +0.031 A 
ATOM     27  C   UNL     1       4.314   1.524   0.030  1.00  0.00    +0.139 A 
ATOM     28  C   UNL     1       5.049   0.378   0.333  1.00  0.00    +0.055 A 
BRANCH  28  29
ATOM     29  N   UNL     1       6.446   0.325   0.446  1.00  0.00    -0.368 N 
ATOM     30  C   UNL     1       7.093  -0.738  -0.361  1.00  0.00    +0.132 C 
ATOM     31  C   UNL     1       7.187   1.605   0.433  1.00  0.00    +0.132 C 
ATOM     32  C   UNL     1       8.593  -0.870  -0.006  1.00  0.00    +0.102 C 
ATOM     33  C   UNL     1       8.678   1.387   0.776  1.00  0.00    +0.102 C 
ATOM     34  N   UNL     1       9.343   0.398  -0.096  1.00  0.00    -0.313 NA
ATOM     35  H   UNL     1       9.285   0.733  -1.058  1.00  0.00    +0.122 HD
ENDBRANCH  28  29
ENDBRANCH   1  23
TORSDOF 5
