REMARK SMILES CC(=O)c1c(C)c2cnc(Nc3ccc(N4CCNCC4)cn3)nc2n(C2CCCC2)c1=O
REMARK SMILES IDX 11 1 10 3 4 4 5 5 32 6 7 7 26 8 33 9 8 10 25 11 9 12 24 13
REMARK SMILES IDX 6 14 2 15 3 16 1 17 27 18 28 19 31 20 29 21 30 22 12 23
REMARK SMILES IDX 13 24 23 25 14 26 22 27 15 28 16 29 17 30 21 31 18 32 20 33
REMARK SMILES IDX 19 34
REMARK H PARENT 11 2 19 35
ROOT
ATOM      1  N   UNL     1       0.849   0.876  -0.580  1.00  0.00    -0.309 N 
ATOM      2  H   UNL     1       0.620   1.840  -0.906  1.00  0.00    +0.171 HD
ENDROOT
BRANCH   1   3
ATOM      3  C   UNL     1      -0.277   0.049  -0.252  1.00  0.00    +0.230 A 
ATOM      4  C   UNL     1      -4.929  -1.585   0.590  1.00  0.00    +0.086 A 
ATOM      5  C   UNL     1      -3.678  -2.236   0.609  1.00  0.00    -0.022 A 
ATOM      6  C   UNL     1      -4.996  -0.201   0.356  1.00  0.00    +0.263 A 
ATOM      7  C   UNL     1      -2.522  -1.482   0.309  1.00  0.00    +0.040 A 
ATOM      8  N   UNL     1      -3.858   0.540   0.120  1.00  0.00    -0.289 N 
ATOM      9  O   UNL     1      -6.130   0.356   0.359  1.00  0.00    -0.268 OA
ATOM     10  C   UNL     1      -1.237  -2.060   0.215  1.00  0.00    +0.127 A 
ATOM     11  C   UNL     1      -2.634  -0.091   0.081  1.00  0.00    +0.148 A 
ATOM     12  N   UNL     1      -0.158  -1.289  -0.068  1.00  0.00    -0.221 NA
ATOM     13  N   UNL     1      -1.506   0.619  -0.188  1.00  0.00    -0.194 NA
ATOM     14  C   UNL     1      -3.574  -3.715   0.927  1.00  0.00    +0.046 C 
BRANCH   4  15
ATOM     15  C   UNL     1      -6.188  -2.332   0.774  1.00  0.00    +0.165 C 
ATOM     16  O   UNL     1      -6.708  -2.406   1.919  1.00  0.00    -0.294 OA
ATOM     17  C   UNL     1      -6.834  -3.009  -0.391  1.00  0.00    +0.094 C 
ENDBRANCH   4  15
BRANCH   8  18
ATOM     18  C   UNL     1      -3.939   2.015  -0.098  1.00  0.00    +0.092 C 
ATOM     19  C   UNL     1      -4.763   2.398  -1.327  1.00  0.00    +0.025 C 
ATOM     20  C   UNL     1      -4.530   2.765   1.097  1.00  0.00    +0.025 C 
ATOM     21  C   UNL     1      -5.500   3.684  -0.973  1.00  0.00    +0.002 C 
ATOM     22  C   UNL     1      -5.311   3.939   0.521  1.00  0.00    +0.002 C 
ENDBRANCH   8  18
ENDBRANCH   1   3
BRANCH   1  23
ATOM     23  C   UNL     1       2.250   0.542  -0.559  1.00  0.00    +0.132 A 
ATOM     24  C   UNL     1       2.769  -0.571   0.128  1.00  0.00    +0.049 A 
ATOM     25  N   UNL     1       3.115   1.397  -1.176  1.00  0.00    -0.237 NA
ATOM     26  C   UNL     1       4.148  -0.791   0.142  1.00  0.00    +0.031 A 
ATOM     27  C   UNL     1       4.461   1.212  -1.167  1.00  0.00    +0.139 A 
ATOM     28  C   UNL     1       5.026   0.112  -0.493  1.00  0.00    +0.055 A 
BRANCH  28  29
ATOM     29  N   UNL     1       6.464  -0.081  -0.450  1.00  0.00    -0.368 N 
ATOM     30  C   UNL     1       7.011  -1.446  -0.477  1.00  0.00    +0.132 C 
ATOM     31  C   UNL     1       7.352   1.091  -0.604  1.00  0.00    +0.132 C 
ATOM     32  C   UNL     1       8.528  -1.433  -0.613  1.00  0.00    +0.102 C 
ATOM     33  C   UNL     1       8.771   0.891  -0.016  1.00  0.00    +0.102 C 
ATOM     34  N   UNL     1       9.071  -0.496   0.367  1.00  0.00    -0.313 NA
ATOM     35  H   UNL     1      10.112  -0.609   0.380  1.00  0.00    +0.122 HD
ENDBRANCH  28  29
ENDBRANCH   1  23
TORSDOF 5
