REMARK SMILES CC(=O)c1c(C)c2cnc(Nc3ccc(N4CCNCC4)cn3)nc2n(C2CCCC2)c1=O
REMARK SMILES IDX 11 1 10 3 4 4 5 5 32 6 7 7 26 8 33 9 8 10 25 11 9 12 24 13
REMARK SMILES IDX 6 14 2 15 3 16 1 17 27 18 28 19 31 20 29 21 30 22 12 23
REMARK SMILES IDX 13 24 23 25 14 26 22 27 15 28 16 29 17 30 21 31 18 32 20 33
REMARK SMILES IDX 19 34
REMARK H PARENT 11 2 19 35
ROOT
ATOM      1  N   UNL     1       0.983  -0.450  -0.467  1.00  0.00    -0.309 N 
ATOM      2  H   UNL     1       0.773  -1.433  -0.401  1.00  0.00    +0.171 HD
ENDROOT
BRANCH   1   3
ATOM      3  C   UNL     1      -0.130   0.347  -0.283  1.00  0.00    +0.230 A 
ATOM      4  C   UNL     1      -4.817   1.850   0.528  1.00  0.00    +0.086 C 
ATOM      5  C   UNL     1      -3.690   2.547   0.272  1.00  0.00    -0.022 C 
ATOM      6  C   UNL     1      -4.823   0.357   0.570  1.00  0.00    +0.263 C 
ATOM      7  C   UNL     1      -2.440   1.787   0.085  1.00  0.00    +0.040 A 
ATOM      8  N   UNL     1      -3.619  -0.306   0.381  1.00  0.00    -0.289 N 
ATOM      9  O   UNL     1      -5.891  -0.222   0.767  1.00  0.00    -0.268 OA
ATOM     10  C   UNL     1      -1.205   2.365  -0.140  1.00  0.00    +0.127 A 
ATOM     11  C   UNL     1      -2.412   0.404   0.128  1.00  0.00    +0.148 A 
ATOM     12  N   UNL     1      -0.060   1.679  -0.325  1.00  0.00    -0.221 NA
ATOM     13  N   UNL     1      -1.278  -0.306  -0.061  1.00  0.00    -0.194 NA
ATOM     14  C   UNL     1      -3.621   4.049   0.142  1.00  0.00    +0.046 C 
BRANCH   4  15
ATOM     15  C   UNL     1      -6.104   2.570   0.777  1.00  0.00    +0.165 C 
ATOM     16  O   UNL     1      -6.167   3.465   1.620  1.00  0.00    -0.294 OA
ATOM     17  C   UNL     1      -7.308   2.176  -0.039  1.00  0.00    +0.094 C 
ENDBRANCH   4  15
BRANCH   8  18
ATOM     18  C   UNL     1      -3.575  -1.779   0.405  1.00  0.00    +0.092 C 
ATOM     19  C   UNL     1      -4.340  -2.431  -0.758  1.00  0.00    +0.025 C 
ATOM     20  C   UNL     1      -4.139  -2.417   1.693  1.00  0.00    +0.025 C 
ATOM     21  C   UNL     1      -4.819  -3.757  -0.187  1.00  0.00    +0.002 C 
ATOM     22  C   UNL     1      -5.214  -3.398   1.236  1.00  0.00    +0.002 C 
ENDBRANCH   8  18
ENDBRANCH   1   3
BRANCH   1  23
ATOM     23  C   UNL     1       2.322  -0.213  -0.710  1.00  0.00    +0.132 A 
ATOM     24  C   UNL     1       2.887   1.043  -0.848  1.00  0.00    +0.049 A 
ATOM     25  N   UNL     1       3.083  -1.321  -0.817  1.00  0.00    -0.237 NA
ATOM     26  C   UNL     1       4.261   1.166  -1.090  1.00  0.00    +0.031 A 
ATOM     27  C   UNL     1       4.414  -1.168  -1.055  1.00  0.00    +0.139 A 
ATOM     28  C   UNL     1       5.089   0.045  -1.186  1.00  0.00    +0.055 A 
BRANCH  28  29
ATOM     29  N   UNL     1       6.453   0.185  -1.445  1.00  0.00    -0.368 N 
ATOM     30  C   UNL     1       7.261  -0.994  -1.826  1.00  0.00    +0.132 C 
ATOM     31  C   UNL     1       7.200   1.115  -0.563  1.00  0.00    +0.132 C 
ATOM     32  C   UNL     1       7.875  -1.693  -0.590  1.00  0.00    +0.102 C 
ATOM     33  C   UNL     1       7.793   0.365   0.654  1.00  0.00    +0.102 C 
ATOM     34  N   UNL     1       8.650  -0.781   0.278  1.00  0.00    -0.313 NA
ATOM     35  H   UNL     1       9.437  -0.422  -0.263  1.00  0.00    +0.122 HD
ENDBRANCH  28  29
ENDBRANCH   1  23
TORSDOF 5
