REMARK SMILES CC(=O)c1c(C)c2cnc(Nc3ccc(N4CCNCC4)cn3)nc2n(C2CCCC2)c1=O
REMARK SMILES IDX 11 1 10 3 4 4 5 5 32 6 7 7 26 8 33 9 8 10 25 11 9 12 24 13
REMARK SMILES IDX 6 14 2 15 3 16 1 17 27 18 28 19 31 20 29 21 30 22 12 23
REMARK SMILES IDX 13 24 23 25 14 26 22 27 15 28 16 29 17 30 21 31 18 32 20 33
REMARK SMILES IDX 19 34
REMARK H PARENT 11 2 19 35
ROOT
ATOM      1  N   UNL     1       0.876  -0.656  -0.172  1.00  0.00    -0.309 N 
ATOM      2  H   UNL     1       0.642  -1.615   0.031  1.00  0.00    +0.171 HD
ENDROOT
BRANCH   1   3
ATOM      3  C   UNL     1      -0.208   0.193  -0.054  1.00  0.00    +0.230 A 
ATOM      4  C   UNL     1      -4.813   1.938   0.736  1.00  0.00    +0.086 C 
ATOM      5  C   UNL     1      -3.682   2.558   0.340  1.00  0.00    -0.022 C 
ATOM      6  C   UNL     1      -4.855   0.466   0.984  1.00  0.00    +0.263 C 
ATOM      7  C   UNL     1      -2.462   1.742   0.208  1.00  0.00    +0.040 A 
ATOM      8  N   UNL     1      -3.679  -0.254   0.837  1.00  0.00    -0.289 N 
ATOM      9  O   UNL     1      -5.927  -0.047   1.304  1.00  0.00    -0.268 OA
ATOM     10  C   UNL     1      -1.224   2.244  -0.144  1.00  0.00    +0.127 A 
ATOM     11  C   UNL     1      -2.467   0.377   0.439  1.00  0.00    +0.148 A 
ATOM     12  N   UNL     1      -0.106   1.504  -0.281  1.00  0.00    -0.221 NA
ATOM     13  N   UNL     1      -1.361  -0.387   0.304  1.00  0.00    -0.194 NA
ATOM     14  C   UNL     1      -3.582   4.026   0.002  1.00  0.00    +0.046 C 
BRANCH   4  15
ATOM     15  C   UNL     1      -6.069   2.725   0.937  1.00  0.00    +0.165 C 
ATOM     16  O   UNL     1      -6.071   3.729   1.651  1.00  0.00    -0.294 OA
ATOM     17  C   UNL     1      -7.319   2.262   0.236  1.00  0.00    +0.094 C 
ENDBRANCH   4  15
BRANCH   8  18
ATOM     18  C   UNL     1      -3.671  -1.711   1.061  1.00  0.00    +0.092 C 
ATOM     19  C   UNL     1      -4.506  -2.491   0.032  1.00  0.00    +0.025 C 
ATOM     20  C   UNL     1      -4.190  -2.150   2.447  1.00  0.00    +0.025 C 
ATOM     21  C   UNL     1      -4.991  -3.711   0.800  1.00  0.00    +0.002 C 
ATOM     22  C   UNL     1      -5.310  -3.150   2.176  1.00  0.00    +0.002 C 
ENDBRANCH   8  18
ENDBRANCH   1   3
BRANCH   1  23
ATOM     23  C   UNL     1       2.207  -0.498  -0.505  1.00  0.00    +0.132 A 
ATOM     24  C   UNL     1       2.799   0.711  -0.833  1.00  0.00    +0.049 A 
ATOM     25  N   UNL     1       2.930  -1.635  -0.498  1.00  0.00    -0.237 NA
ATOM     26  C   UNL     1       4.164   0.762  -1.150  1.00  0.00    +0.031 A 
ATOM     27  C   UNL     1       4.250  -1.554  -0.817  1.00  0.00    +0.139 A 
ATOM     28  C   UNL     1       4.952  -0.388  -1.134  1.00  0.00    +0.055 A 
BRANCH  28  29
ATOM     29  N   UNL     1       6.318  -0.406  -1.450  1.00  0.00    -0.368 N 
ATOM     30  C   UNL     1       6.926   0.831  -1.986  1.00  0.00    +0.132 C 
ATOM     31  C   UNL     1       7.176  -1.106  -0.463  1.00  0.00    +0.132 C 
ATOM     32  C   UNL     1       8.368   0.575  -2.481  1.00  0.00    +0.102 C 
ATOM     33  C   UNL     1       8.617  -1.283  -0.999  1.00  0.00    +0.102 C 
ATOM     34  N   UNL     1       9.243  -0.026  -1.455  1.00  0.00    -0.313 NA
ATOM     35  H   UNL     1       9.287   0.612  -0.660  1.00  0.00    +0.122 HD
ENDBRANCH  28  29
ENDBRANCH   1  23
TORSDOF 5
