REMARK SMILES CC(=O)c1c(C)c2cnc(Nc3ccc(N4CCNCC4)cn3)nc2n(C2CCCC2)c1=O
REMARK SMILES IDX 11 1 10 3 4 4 5 5 32 6 7 7 26 8 33 9 8 10 25 11 9 12 24 13
REMARK SMILES IDX 6 14 2 15 3 16 1 17 27 18 28 19 31 20 29 21 30 22 12 23
REMARK SMILES IDX 13 24 23 25 14 26 22 27 15 28 16 29 17 30 21 31 18 32 20 33
REMARK SMILES IDX 19 34
REMARK H PARENT 11 2 19 35
ROOT
ATOM      1  N   UNL     1       0.485   0.557   0.265  1.00  0.00    -0.309 N 
ATOM      2  H   UNL     1       0.189   1.452   0.620  1.00  0.00    +0.171 HD
ENDROOT
BRANCH   1   3
ATOM      3  C   UNL     1      -0.575  -0.254  -0.089  1.00  0.00    +0.230 A 
ATOM      4  C   UNL     1      -5.192  -1.933  -0.945  1.00  0.00    +0.086 C 
ATOM      5  C   UNL     1      -3.989  -2.533  -1.066  1.00  0.00    -0.022 C 
ATOM      6  C   UNL     1      -5.322  -0.538  -0.428  1.00  0.00    +0.263 C 
ATOM      7  C   UNL     1      -2.791  -1.743  -0.731  1.00  0.00    +0.040 A 
ATOM      8  N   UNL     1      -4.166   0.125  -0.038  1.00  0.00    -0.289 N 
ATOM      9  O   UNL     1      -6.444  -0.037  -0.357  1.00  0.00    -0.268 OA
ATOM     10  C   UNL     1      -1.494  -2.192  -0.893  1.00  0.00    +0.127 A 
ATOM     11  C   UNL     1      -2.881  -0.459  -0.224  1.00  0.00    +0.148 A 
ATOM     12  N   UNL     1      -0.392  -1.480  -0.583  1.00  0.00    -0.221 NA
ATOM     13  N   UNL     1      -1.792   0.272   0.096  1.00  0.00    -0.194 NA
ATOM     14  C   UNL     1      -3.785  -3.962  -1.507  1.00  0.00    +0.046 C 
BRANCH   4  15
ATOM     15  C   UNL     1      -6.438  -2.663  -1.334  1.00  0.00    +0.165 C 
ATOM     16  O   UNL     1      -6.524  -3.214  -2.432  1.00  0.00    -0.294 OA
ATOM     17  C   UNL     1      -7.572  -2.714  -0.343  1.00  0.00    +0.094 C 
ENDBRANCH   4  15
BRANCH   8  18
ATOM     18  C   UNL     1      -4.288   1.496   0.475  1.00  0.00    +0.092 C 
ATOM     19  C   UNL     1      -3.632   1.779   1.841  1.00  0.00    +0.025 C 
ATOM     20  C   UNL     1      -3.783   2.585  -0.484  1.00  0.00    +0.025 C 
ATOM     21  C   UNL     1      -2.787   3.035   1.640  1.00  0.00    +0.002 C 
ATOM     22  C   UNL     1      -3.413   3.734   0.442  1.00  0.00    +0.002 C 
ENDBRANCH   8  18
ENDBRANCH   1   3
BRANCH   1  23
ATOM     23  C   UNL     1       1.861   0.430   0.246  1.00  0.00    +0.132 A 
ATOM     24  C   UNL     1       2.541  -0.695  -0.191  1.00  0.00    +0.049 A 
ATOM     25  N   UNL     1       2.535   1.505   0.699  1.00  0.00    -0.237 NA
ATOM     26  C   UNL     1       3.943  -0.719  -0.174  1.00  0.00    +0.031 A 
ATOM     27  C   UNL     1       3.894   1.450   0.708  1.00  0.00    +0.139 A 
ATOM     28  C   UNL     1       4.679   0.381   0.267  1.00  0.00    +0.055 A 
BRANCH  28  29
ATOM     29  N   UNL     1       6.080   0.417   0.317  1.00  0.00    -0.368 N 
ATOM     30  C   UNL     1       6.820  -0.832   0.040  1.00  0.00    +0.132 C 
ATOM     31  C   UNL     1       6.693   1.618  -0.303  1.00  0.00    +0.132 C 
ATOM     32  C   UNL     1       8.326  -0.669   0.349  1.00  0.00    +0.102 C 
ATOM     33  C   UNL     1       8.208   1.692   0.001  1.00  0.00    +0.102 C 
ATOM     34  N   UNL     1       8.950   0.468  -0.357  1.00  0.00    -0.313 NA
ATOM     35  H   UNL     1       8.845   0.315  -1.360  1.00  0.00    +0.122 HD
ENDBRANCH  28  29
ENDBRANCH   1  23
TORSDOF 5
