REMARK SMILES CC(=O)c1c(C)c2cnc(Nc3ccc(N4CCNCC4)cn3)nc2n(C2CCCC2)c1=O
REMARK SMILES IDX 11 1 10 3 4 4 5 5 32 6 7 7 26 8 33 9 8 10 25 11 9 12 24 13
REMARK SMILES IDX 6 14 2 15 3 16 1 17 27 18 28 19 31 20 29 21 30 22 12 23
REMARK SMILES IDX 13 24 23 25 14 26 22 27 15 28 16 29 17 30 21 31 18 32 20 33
REMARK SMILES IDX 19 34
REMARK H PARENT 11 2 19 35
ROOT
ATOM      1  N   UNL     1       0.894  -0.579   0.309  1.00  0.00    -0.309 N 
ATOM      2  H   UNL     1       0.652  -1.523   0.564  1.00  0.00    +0.171 HD
ENDROOT
BRANCH   1   3
ATOM      3  C   UNL     1      -0.214   0.215   0.088  1.00  0.00    +0.230 A 
ATOM      4  C   UNL     1      -4.930   1.755  -0.425  1.00  0.00    +0.086 C 
ATOM      5  C   UNL     1      -3.761   2.427  -0.500  1.00  0.00    -0.022 C 
ATOM      6  C   UNL     1      -4.976   0.300  -0.090  1.00  0.00    +0.263 C 
ATOM      7  C   UNL     1      -2.517   1.662  -0.302  1.00  0.00    +0.040 A 
ATOM      8  N   UNL     1      -3.781  -0.341   0.200  1.00  0.00    -0.289 N 
ATOM      9  O   UNL     1      -6.069  -0.265  -0.074  1.00  0.00    -0.268 OA
ATOM     10  C   UNL     1      -1.248   2.189  -0.447  1.00  0.00    +0.127 A 
ATOM     11  C   UNL     1      -2.531   0.323   0.048  1.00  0.00    +0.148 A 
ATOM     12  N   UNL     1      -0.105   1.500  -0.259  1.00  0.00    -0.221 NA
ATOM     13  N   UNL     1      -1.399  -0.389   0.244  1.00  0.00    -0.194 NA
ATOM     14  C   UNL     1      -3.638   3.908  -0.758  1.00  0.00    +0.046 C 
BRANCH   4  15
ATOM     15  C   UNL     1      -6.221   2.464  -0.684  1.00  0.00    +0.165 C 
ATOM     16  O   UNL     1      -6.367   3.152  -1.695  1.00  0.00    -0.294 OA
ATOM     17  C   UNL     1      -7.327   2.320   0.329  1.00  0.00    +0.094 C 
ENDBRANCH   4  15
BRANCH   8  18
ATOM     18  C   UNL     1      -3.772  -1.774   0.542  1.00  0.00    +0.092 C 
ATOM     19  C   UNL     1      -4.160  -2.681  -0.636  1.00  0.00    +0.025 C 
ATOM     20  C   UNL     1      -4.710  -2.168   1.705  1.00  0.00    +0.025 C 
ATOM     21  C   UNL     1      -4.819  -3.883   0.023  1.00  0.00    +0.002 C 
ATOM     22  C   UNL     1      -5.619  -3.263   1.155  1.00  0.00    +0.002 C 
ENDBRANCH   8  18
ENDBRANCH   1   3
BRANCH   1  23
ATOM     23  C   UNL     1       2.260  -0.381   0.264  1.00  0.00    +0.132 A 
ATOM     24  C   UNL     1       2.872   0.821  -0.055  1.00  0.00    +0.049 A 
ATOM     25  N   UNL     1       3.000  -1.467   0.565  1.00  0.00    -0.237 NA
ATOM     26  C   UNL     1       4.271   0.912  -0.078  1.00  0.00    +0.031 A 
ATOM     27  C   UNL     1       4.354  -1.345   0.540  1.00  0.00    +0.139 A 
ATOM     28  C   UNL     1       5.073  -0.194   0.206  1.00  0.00    +0.055 A 
BRANCH  28  29
ATOM     29  N   UNL     1       6.474  -0.165   0.209  1.00  0.00    -0.368 N 
ATOM     30  C   UNL     1       7.120  -1.252  -0.568  1.00  0.00    +0.132 C 
ATOM     31  C   UNL     1       7.146   1.144   0.061  1.00  0.00    +0.132 C 
ATOM     32  C   UNL     1       8.647  -1.286  -0.321  1.00  0.00    +0.102 C 
ATOM     33  C   UNL     1       8.668   1.021   0.303  1.00  0.00    +0.102 C 
ATOM     34  N   UNL     1       9.318   0.008  -0.552  1.00  0.00    -0.313 NA
ATOM     35  H   UNL     1       9.171   0.272  -1.526  1.00  0.00    +0.122 HD
ENDBRANCH  28  29
ENDBRANCH   1  23
TORSDOF 5
