REMARK SMILES CC1(C)OCCn2c1nc1c(N3CCOCC3)nc(-c3cnc(N)nc3)nc12
REMARK SMILES IDX 20 1 21 2 22 3 23 4 25 5 26 6 19 7 2 8 4 9 8 10 5 11 7 12
REMARK SMILES IDX 9 13 6 14 28 15 10 16 27 17 11 18 18 19 1 20 3 21 12 22
REMARK SMILES IDX 13 23 17 24 14 25 16 26 15 27 24 28
REMARK H PARENT 24 29 24 30
ROOT
ATOM      1  C   UNL     1       3.437  -0.846  -0.096  1.00  0.00    +0.056 A 
ATOM      2  C   UNL     1       4.429   0.101  -0.266  1.00  0.00    +0.128 A 
ATOM      3  N   UNL     1       5.754  -0.171  -0.336  1.00  0.00    -0.221 NA
ATOM      4  C   UNL     1       6.106  -1.452  -0.215  1.00  0.00    +0.219 A 
ATOM      5  N   UNL     1       5.247  -2.461  -0.067  1.00  0.00    -0.221 NA
ATOM      6  C   UNL     1       3.934  -2.132  -0.003  1.00  0.00    +0.128 A 
ENDROOT
BRANCH   1   7
ATOM      7  C   UNL     1       2.013  -0.521  -0.026  1.00  0.00    +0.167 A 
ATOM      8  C   UNL     1      -3.707  -1.631   0.667  1.00  0.00    +0.120 C 
ATOM      9  O   UNL     1      -3.674  -3.080   0.676  1.00  0.00    -0.366 OA
ATOM     10  C   UNL     1      -2.322  -1.080   0.434  1.00  0.00    +0.143 A 
ATOM     11  C   UNL     1      -2.576  -3.652   1.394  1.00  0.00    +0.183 C 
ATOM     12  N   UNL     1      -1.212  -1.886   0.469  1.00  0.00    -0.308 N 
ATOM     13  N   UNL     1      -1.972   0.174   0.213  1.00  0.00    -0.224 NA
ATOM     14  C   UNL     1      -1.272  -3.312   0.693  1.00  0.00    +0.154 C 
ATOM     15  C   UNL     1      -0.108  -1.122   0.252  1.00  0.00    +0.166 A 
ATOM     16  C   UNL     1      -0.589   0.169   0.096  1.00  0.00    +0.151 A 
ATOM     17  N   UNL     1       1.164  -1.540   0.204  1.00  0.00    -0.208 NA
ATOM     18  C   UNL     1       0.368   1.187  -0.150  1.00  0.00    +0.161 A 
ATOM     19  N   UNL     1       1.675   0.778  -0.201  1.00  0.00    -0.208 NA
ATOM     20  C   UNL     1      -4.633  -1.236  -0.486  1.00  0.00    +0.051 C 
ATOM     21  C   UNL     1      -4.281  -1.119   1.992  1.00  0.00    +0.051 C 
BRANCH  18  22
ATOM     22  N   UNL     1       0.097   2.560  -0.308  1.00  0.00    -0.350 N 
ATOM     23  C   UNL     1      -1.311   2.924  -0.563  1.00  0.00    +0.146 C 
ATOM     24  C   UNL     1       1.057   3.242  -1.199  1.00  0.00    +0.146 C 
ATOM     25  C   UNL     1      -1.468   4.451  -0.649  1.00  0.00    +0.181 C 
ATOM     26  C   UNL     1       0.781   4.751  -1.240  1.00  0.00    +0.181 C 
ATOM     27  O   UNL     1      -0.577   5.028  -1.614  1.00  0.00    -0.378 OA
ENDBRANCH  18  22
ENDBRANCH   1   7
BRANCH   4  28
ATOM     28  N   UNL     1       7.446  -1.758  -0.297  1.00  0.00    -0.368 N 
ATOM     29  H   UNL     1       7.930  -1.033  -0.808  1.00  0.00    +0.159 HD
ATOM     30  H   UNL     1       7.559  -2.710  -0.617  1.00  0.00    +0.159 HD
ENDBRANCH   4  28
TORSDOF 3
