REMARK SMILES CC1(C)Cc2c(nc(N3CCOCC3)nc2N2CCOCC2)O1
REMARK SMILES IDX 1 1 2 2 3 3 4 4 5 5 16 6 15 7 8 8 7 9 6 10 23 11 17 12 18 13
REMARK SMILES IDX 22 14 19 15 21 16 20 17 9 18 10 19 14 20 11 21 13 22 12 23
REMARK H PARENT
ROOT
ATOM      1  C   UNL     1      -2.572  -3.832  -0.617  1.00  0.00    +0.057 C 
ATOM      2  C   UNL     1      -2.103  -2.956   0.552  1.00  0.00    +0.110 C 
ATOM      3  C   UNL     1      -2.736  -3.435   1.866  1.00  0.00    +0.057 C 
ATOM      4  C   UNL     1      -2.398  -1.443   0.284  1.00  0.00    +0.093 C 
ATOM      5  C   UNL     1      -1.034  -0.829   0.206  1.00  0.00    +0.061 A 
ATOM      6  C   UNL     1      -0.588   0.499  -0.009  1.00  0.00    +0.141 A 
ATOM      7  N   UNL     1       0.763   0.704   0.030  1.00  0.00    -0.195 NA
ATOM      8  C   UNL     1       1.663  -0.299   0.251  1.00  0.00    +0.230 A 
ATOM      9  N   UNL     1       1.218  -1.569   0.461  1.00  0.00    -0.177 NA
ATOM     10  C   UNL     1      -0.112  -1.811   0.442  1.00  0.00    +0.224 A 
ATOM     11  O   UNL     1      -0.684  -3.043   0.655  1.00  0.00    -0.471 OA
ENDROOT
BRANCH   6  12
ATOM     12  N   UNL     1      -1.457   1.643  -0.246  1.00  0.00    -0.351 N 
ATOM     13  C   UNL     1      -0.809   2.969  -0.332  1.00  0.00    +0.146 C 
ATOM     14  C   UNL     1      -2.864   1.469  -0.659  1.00  0.00    +0.146 C 
ATOM     15  C   UNL     1      -1.813   4.115  -0.443  1.00  0.00    +0.181 C 
ATOM     16  C   UNL     1      -3.628   2.789  -0.855  1.00  0.00    +0.181 C 
ATOM     17  O   UNL     1      -2.806   3.799  -1.389  1.00  0.00    -0.378 OA
ENDBRANCH   6  12
BRANCH   8  18
ATOM     18  N   UNL     1       3.072  -0.011   0.266  1.00  0.00    -0.336 N 
ATOM     19  C   UNL     1       3.513   1.363   0.525  1.00  0.00    +0.148 C 
ATOM     20  C   UNL     1       4.038  -1.119   0.206  1.00  0.00    +0.148 C 
ATOM     21  C   UNL     1       5.032   1.425   0.626  1.00  0.00    +0.181 C 
ATOM     22  C   UNL     1       5.442  -0.667  -0.278  1.00  0.00    +0.181 C 
ATOM     23  O   UNL     1       5.585   0.731  -0.466  1.00  0.00    -0.378 OA
ENDBRANCH   8  18
TORSDOF 2
