REMARK SMILES CC1(C)OCCn2c1nc1c(N3CCOCC3)nc(-c3cnc(N)nc3)nc12
REMARK SMILES IDX 20 1 21 2 22 3 23 4 25 5 26 6 19 7 2 8 4 9 8 10 5 11 7 12
REMARK SMILES IDX 9 13 6 14 28 15 10 16 27 17 11 18 18 19 1 20 3 21 12 22
REMARK SMILES IDX 13 23 17 24 14 25 16 26 15 27 24 28
REMARK H PARENT 24 29 24 30
ROOT
ATOM      1  C   UNL     1       2.826   2.064  -0.570  1.00  0.00    +0.056 A 
ATOM      2  C   UNL     1       4.122   1.590  -0.479  1.00  0.00    +0.128 A 
ATOM      3  N   UNL     1       5.235   2.349  -0.618  1.00  0.00    -0.221 NA
ATOM      4  C   UNL     1       5.044   3.643  -0.877  1.00  0.00    +0.219 A 
ATOM      5  N   UNL     1       3.848   4.228  -0.971  1.00  0.00    -0.221 NA
ATOM      6  C   UNL     1       2.770   3.421  -0.823  1.00  0.00    +0.128 A 
ENDROOT
BRANCH   1   7
ATOM      7  C   UNL     1       1.644   1.219  -0.412  1.00  0.00    +0.167 A 
ATOM      8  C   UNL     1      -4.096   0.007  -0.281  1.00  0.00    +0.120 C 
ATOM      9  O   UNL     1      -4.621   1.255  -0.796  1.00  0.00    -0.366 OA
ATOM     10  C   UNL     1      -2.588   0.040  -0.270  1.00  0.00    +0.143 A 
ATOM     11  C   UNL     1      -3.960   2.430  -0.315  1.00  0.00    +0.183 C 
ATOM     12  N   UNL     1      -1.892   1.198  -0.507  1.00  0.00    -0.308 N 
ATOM     13  N   UNL     1      -1.754  -0.952  -0.012  1.00  0.00    -0.224 NA
ATOM     14  C   UNL     1      -2.527   2.457  -0.821  1.00  0.00    +0.154 C 
ATOM     15  C   UNL     1      -0.560   0.938  -0.409  1.00  0.00    +0.166 A 
ATOM     16  C   UNL     1      -0.479  -0.413  -0.107  1.00  0.00    +0.151 A 
ATOM     17  N   UNL     1       0.444   1.809  -0.571  1.00  0.00    -0.208 NA
ATOM     18  C   UNL     1       0.820  -0.959   0.055  1.00  0.00    +0.161 A 
ATOM     19  N   UNL     1       1.862  -0.083  -0.110  1.00  0.00    -0.208 NA
ATOM     20  C   UNL     1      -4.645  -0.243   1.127  1.00  0.00    +0.051 C 
ATOM     21  C   UNL     1      -4.593  -1.085  -1.232  1.00  0.00    +0.051 C 
BRANCH  18  22
ATOM     22  N   UNL     1       1.125  -2.305   0.333  1.00  0.00    -0.350 N 
ATOM     23  C   UNL     1       2.361  -2.469   1.125  1.00  0.00    +0.146 C 
ATOM     24  C   UNL     1       0.007  -3.151   0.792  1.00  0.00    +0.146 C 
ATOM     25  C   UNL     1       2.704  -3.957   1.290  1.00  0.00    +0.181 C 
ATOM     26  C   UNL     1       0.471  -4.604   0.985  1.00  0.00    +0.181 C 
ATOM     27  O   UNL     1       1.609  -4.690   1.856  1.00  0.00    -0.378 OA
ENDBRANCH  18  22
ENDBRANCH   1   7
BRANCH   4  28
ATOM     28  N   UNL     1       6.158   4.442  -1.009  1.00  0.00    -0.368 N 
ATOM     29  H   UNL     1       5.924   5.396  -0.777  1.00  0.00    +0.159 HD
ATOM     30  H   UNL     1       6.938   4.020  -0.525  1.00  0.00    +0.159 HD
ENDBRANCH   4  28
TORSDOF 3
