REMARK SMILES CC1(C)OCCn2c1nc1c(N3CCOCC3)nc(-c3cnc(N)nc3)nc12
REMARK SMILES IDX 20 1 21 2 22 3 23 4 25 5 26 6 19 7 2 8 4 9 8 10 5 11 7 12
REMARK SMILES IDX 9 13 6 14 28 15 10 16 27 17 11 18 18 19 1 20 3 21 12 22
REMARK SMILES IDX 13 23 17 24 14 25 16 26 15 27 24 28
REMARK H PARENT 24 29 24 30
ROOT
ATOM      1  C   UNL     1       2.814  -1.902   1.050  1.00  0.00    +0.056 A 
ATOM      2  C   UNL     1       4.091  -1.374   1.086  1.00  0.00    +0.128 A 
ATOM      3  N   UNL     1       5.198  -2.052   1.474  1.00  0.00    -0.221 NA
ATOM      4  C   UNL     1       5.017  -3.316   1.859  1.00  0.00    +0.219 A 
ATOM      5  N   UNL     1       3.843  -3.948   1.850  1.00  0.00    -0.221 NA
ATOM      6  C   UNL     1       2.770  -3.223   1.454  1.00  0.00    +0.128 A 
ENDROOT
BRANCH   1   7
ATOM      7  C   UNL     1       1.638  -1.144   0.628  1.00  0.00    +0.167 A 
ATOM      8  C   UNL     1      -4.029  -0.319  -0.651  1.00  0.00    +0.120 C 
ATOM      9  O   UNL     1      -4.572  -1.574  -0.172  1.00  0.00    -0.366 OA
ATOM     10  C   UNL     1      -2.548  -0.253  -0.375  1.00  0.00    +0.143 A 
ATOM     11  C   UNL     1      -3.768  -2.724  -0.454  1.00  0.00    +0.183 C 
ATOM     12  N   UNL     1      -1.846  -1.351   0.054  1.00  0.00    -0.308 N 
ATOM     13  N   UNL     1      -1.738   0.780  -0.525  1.00  0.00    -0.224 NA
ATOM     14  C   UNL     1      -2.458  -2.634   0.311  1.00  0.00    +0.154 C 
ATOM     15  C   UNL     1      -0.538  -1.009   0.195  1.00  0.00    +0.166 A 
ATOM     16  C   UNL     1      -0.474   0.327  -0.171  1.00  0.00    +0.151 A 
ATOM     17  N   UNL     1       0.463  -1.801   0.600  1.00  0.00    -0.208 NA
ATOM     18  C   UNL     1       0.798   0.952  -0.110  1.00  0.00    +0.161 A 
ATOM     19  N   UNL     1       1.835   0.155   0.302  1.00  0.00    -0.208 NA
ATOM     20  C   UNL     1      -4.760   0.781   0.125  1.00  0.00    +0.051 C 
ATOM     21  C   UNL     1      -4.312  -0.171  -2.149  1.00  0.00    +0.051 C 
BRANCH  18  22
ATOM     22  N   UNL     1       1.087   2.284  -0.464  1.00  0.00    -0.350 N 
ATOM     23  C   UNL     1      -0.070   3.190  -0.603  1.00  0.00    +0.146 C 
ATOM     24  C   UNL     1       2.201   2.861   0.316  1.00  0.00    +0.146 C 
ATOM     25  C   UNL     1       0.387   4.587  -1.053  1.00  0.00    +0.181 C 
ATOM     26  C   UNL     1       2.544   4.269  -0.191  1.00  0.00    +0.181 C 
ATOM     27  O   UNL     1       1.393   5.126  -0.185  1.00  0.00    -0.378 OA
ENDBRANCH  18  22
ENDBRANCH   1   7
BRANCH   4  28
ATOM     28  N   UNL     1       6.128  -4.033   2.244  1.00  0.00    -0.368 N 
ATOM     29  H   UNL     1       6.954  -3.629   1.827  1.00  0.00    +0.159 HD
ATOM     30  H   UNL     1       5.965  -5.019   2.098  1.00  0.00    +0.159 HD
ENDBRANCH   4  28
TORSDOF 3
