REMARK SMILES CC1(C)OCCn2c1nc1c(N3CCOCC3)nc(-c3cnc(N)nc3)nc12
REMARK SMILES IDX 20 1 21 2 22 3 23 4 25 5 26 6 19 7 2 8 4 9 8 10 5 11 7 12
REMARK SMILES IDX 9 13 6 14 28 15 10 16 27 17 11 18 18 19 1 20 3 21 12 22
REMARK SMILES IDX 13 23 17 24 14 25 16 26 15 27 24 28
REMARK H PARENT 24 29 24 30
ROOT
ATOM      1  C   UNL     1       2.617  -2.383   0.146  1.00  0.00    +0.056 A 
ATOM      2  C   UNL     1       2.440  -3.752   0.086  1.00  0.00    +0.128 A 
ATOM      3  N   UNL     1       3.440  -4.665   0.106  1.00  0.00    -0.221 NA
ATOM      4  C   UNL     1       4.682  -4.183   0.174  1.00  0.00    +0.219 A 
ATOM      5  N   UNL     1       4.988  -2.888   0.258  1.00  0.00    -0.221 NA
ATOM      6  C   UNL     1       3.948  -2.020   0.236  1.00  0.00    +0.128 A 
ENDROOT
BRANCH   1   7
ATOM      7  C   UNL     1       1.517  -1.421   0.122  1.00  0.00    +0.167 A 
ATOM      8  C   UNL     1      -4.091   0.302  -0.004  1.00  0.00    +0.120 C 
ATOM      9  O   UNL     1      -4.732  -0.973  -0.252  1.00  0.00    -0.366 OA
ATOM     10  C   UNL     1      -2.591   0.137   0.014  1.00  0.00    +0.143 A 
ATOM     11  C   UNL     1      -4.170  -2.078   0.464  1.00  0.00    +0.183 C 
ATOM     12  N   UNL     1      -2.005  -1.103   0.023  1.00  0.00    -0.308 N 
ATOM     13  N   UNL     1      -1.669   1.082   0.059  1.00  0.00    -0.224 NA
ATOM     14  C   UNL     1      -2.754  -2.337  -0.022  1.00  0.00    +0.154 C 
ATOM     15  C   UNL     1      -0.654  -0.949   0.065  1.00  0.00    +0.166 A 
ATOM     16  C   UNL     1      -0.449   0.422   0.089  1.00  0.00    +0.151 A 
ATOM     17  N   UNL     1       0.268  -1.921   0.079  1.00  0.00    -0.208 NA
ATOM     18  C   UNL     1       0.896   0.872   0.129  1.00  0.00    +0.161 A 
ATOM     19  N   UNL     1       1.854  -0.110   0.146  1.00  0.00    -0.208 NA
ATOM     20  C   UNL     1      -4.507   1.216  -1.160  1.00  0.00    +0.051 C 
ATOM     21  C   UNL     1      -4.591   0.884   1.322  1.00  0.00    +0.051 C 
BRANCH  18  22
ATOM     22  N   UNL     1       1.322   2.213   0.189  1.00  0.00    -0.350 N 
ATOM     23  C   UNL     1       2.624   2.436  -0.472  1.00  0.00    +0.146 C 
ATOM     24  C   UNL     1       0.310   3.236  -0.137  1.00  0.00    +0.146 C 
ATOM     25  C   UNL     1       3.090   3.886  -0.276  1.00  0.00    +0.181 C 
ATOM     26  C   UNL     1       0.893   4.649   0.031  1.00  0.00    +0.181 C 
ATOM     27  O   UNL     1       2.100   4.822  -0.726  1.00  0.00    -0.378 OA
ENDBRANCH  18  22
ENDBRANCH   1   7
BRANCH   4  28
ATOM     28  N   UNL     1       5.719  -5.089   0.210  1.00  0.00    -0.368 N 
ATOM     29  H   UNL     1       5.386  -5.975   0.563  1.00  0.00    +0.159 HD
ATOM     30  H   UNL     1       6.517  -4.674   0.669  1.00  0.00    +0.159 HD
ENDBRANCH   4  28
TORSDOF 3
