REMARK SMILES CC1(C)OCCn2c1nc1c(N3CCOCC3)nc(-c3cnc(N)nc3)nc12
REMARK SMILES IDX 20 1 21 2 22 3 23 4 25 5 26 6 19 7 2 8 4 9 8 10 5 11 7 12
REMARK SMILES IDX 9 13 6 14 28 15 10 16 27 17 11 18 18 19 1 20 3 21 12 22
REMARK SMILES IDX 13 23 17 24 14 25 16 26 15 27 24 28
REMARK H PARENT 24 29 24 30
ROOT
ATOM      1  C   UNL     1      -2.386   2.617  -0.172  1.00  0.00    +0.056 A 
ATOM      2  C   UNL     1      -3.736   2.381  -0.348  1.00  0.00    +0.128 A 
ATOM      3  N   UNL     1      -4.679   3.343  -0.490  1.00  0.00    -0.221 NA
ATOM      4  C   UNL     1      -4.252   4.606  -0.436  1.00  0.00    +0.219 A 
ATOM      5  N   UNL     1      -2.976   4.968  -0.289  1.00  0.00    -0.221 NA
ATOM      6  C   UNL     1      -2.077   3.964  -0.152  1.00  0.00    +0.128 A 
ENDROOT
BRANCH   1   7
ATOM      7  C   UNL     1      -1.392   1.556  -0.025  1.00  0.00    +0.167 A 
ATOM      8  C   UNL     1       3.965  -0.689   0.810  1.00  0.00    +0.120 C 
ATOM      9  O   UNL     1       4.683   0.519   1.166  1.00  0.00    -0.366 OA
ATOM     10  C   UNL     1       2.504  -0.383   0.596  1.00  0.00    +0.143 A 
ATOM     11  C   UNL     1       4.325   1.677   0.406  1.00  0.00    +0.183 C 
ATOM     12  N   UNL     1       2.040   0.907   0.536  1.00  0.00    -0.308 N 
ATOM     13  N   UNL     1       1.513  -1.237   0.406  1.00  0.00    -0.224 NA
ATOM     14  C   UNL     1       2.887   2.064   0.707  1.00  0.00    +0.154 C 
ATOM     15  C   UNL     1       0.699   0.881   0.310  1.00  0.00    +0.166 A 
ATOM     16  C   UNL     1       0.372  -0.464   0.239  1.00  0.00    +0.151 A 
ATOM     17  N   UNL     1      -0.117   1.936   0.186  1.00  0.00    -0.208 NA
ATOM     18  C   UNL     1      -0.990  -0.785   0.005  1.00  0.00    +0.161 A 
ATOM     19  N   UNL     1      -1.841   0.282  -0.123  1.00  0.00    -0.208 NA
ATOM     20  C   UNL     1       4.583  -1.305  -0.449  1.00  0.00    +0.051 C 
ATOM     21  C   UNL     1       4.136  -1.646   1.993  1.00  0.00    +0.051 C 
BRANCH  18  22
ATOM     22  N   UNL     1      -1.536  -2.080  -0.073  1.00  0.00    -0.350 N 
ATOM     23  C   UNL     1      -0.577  -3.190  -0.228  1.00  0.00    +0.146 C 
ATOM     24  C   UNL     1      -2.699  -2.167  -0.980  1.00  0.00    +0.146 C 
ATOM     25  C   UNL     1      -1.307  -4.542  -0.226  1.00  0.00    +0.181 C 
ATOM     26  C   UNL     1      -3.322  -3.569  -0.928  1.00  0.00    +0.181 C 
ATOM     27  O   UNL     1      -2.351  -4.587  -1.210  1.00  0.00    -0.378 OA
ENDBRANCH  18  22
ENDBRANCH   1   7
BRANCH   4  28
ATOM     28  N   UNL     1      -5.187   5.605  -0.592  1.00  0.00    -0.368 N 
ATOM     29  H   UNL     1      -4.742   6.436  -0.953  1.00  0.00    +0.159 HD
ATOM     30  H   UNL     1      -5.987   5.247  -1.094  1.00  0.00    +0.159 HD
ENDBRANCH   4  28
TORSDOF 3
