REMARK SMILES Cc1ccc(Nc2nccc(N(C)c3ccc4c(C)n(C)nc4c3)n2)cc1S(N)(=O)=O
REMARK SMILES IDX 6 1 5 3 2 4 3 5 27 6 4 7 26 8 1 9 28 10 30 11 31 12 29 13
REMARK SMILES IDX 7 16 8 17 25 18 9 19 11 20 10 21 12 22 13 23 14 24 15 25
REMARK SMILES IDX 24 26 16 27 23 28 17 29 22 30 18 31 20 32 19 33 21 34
REMARK H PARENT 6 2 29 14 29 15
ROOT
ATOM      1  N   UNL     1      -2.901  -1.673   0.752  1.00  0.00    -0.324 N 
ATOM      2  H   UNL     1      -3.254  -2.579   1.025  1.00  0.00    +0.170 HD
ENDROOT
BRANCH   1   3
ATOM      3  C   UNL     1      -3.750  -0.851   0.006  1.00  0.00    +0.042 A 
ATOM      4  C   UNL     1      -5.592   0.745  -1.483  1.00  0.00    -0.031 A 
ATOM      5  C   UNL     1      -4.281   1.176  -1.241  1.00  0.00    +0.007 A 
ATOM      6  C   UNL     1      -5.978  -0.499  -0.959  1.00  0.00    +0.087 A 
ATOM      7  C   UNL     1      -3.380   0.389  -0.512  1.00  0.00    +0.026 A 
ATOM      8  C   UNL     1      -5.066  -1.278  -0.223  1.00  0.00    +0.048 A 
ATOM      9  C   UNL     1      -6.514   1.649  -2.252  1.00  0.00    +0.046 C 
BRANCH   6  10
ATOM     10  S   UNL     1      -7.623  -1.141  -1.159  1.00  0.00    +0.238 S 
ATOM     11  O   UNL     1      -8.585  -0.073  -1.025  1.00  0.00    -0.207 OA
ATOM     12  O   UNL     1      -7.750  -2.378  -0.422  1.00  0.00    -0.207 OA
BRANCH  10  13
ATOM     13  N   UNL     1      -7.638  -1.596  -2.776  1.00  0.00    -0.225 NA
ATOM     14  H   UNL     1      -8.348  -1.064  -3.278  1.00  0.00    +0.137 HD
ATOM     15  H   UNL     1      -7.755  -2.607  -2.845  1.00  0.00    +0.137 HD
ENDBRANCH  10  13
ENDBRANCH   6  10
ENDBRANCH   1   3
BRANCH   1  16
ATOM     16  C   UNL     1      -1.587  -1.564   1.200  1.00  0.00    +0.229 A 
ATOM     17  N   UNL     1      -1.132  -2.644   1.852  1.00  0.00    -0.221 NA
ATOM     18  N   UNL     1      -0.852  -0.460   0.997  1.00  0.00    -0.195 NA
ATOM     19  C   UNL     1       0.126  -2.588   2.315  1.00  0.00    +0.119 A 
ATOM     20  C   UNL     1       0.417  -0.426   1.453  1.00  0.00    +0.138 A 
ATOM     21  C   UNL     1       0.943  -1.501   2.147  1.00  0.00    +0.067 A 
BRANCH  20  22
ATOM     22  N   UNL     1       1.217   0.739   1.275  1.00  0.00    -0.329 N 
ATOM     23  C   UNL     1       0.519   1.806   0.546  1.00  0.00    +0.152 C 
BRANCH  22  24
ATOM     24  C   UNL     1       2.613   0.730   0.963  1.00  0.00    +0.044 A 
ATOM     25  C   UNL     1       3.441   1.743   1.571  1.00  0.00    +0.027 A 
ATOM     26  C   UNL     1       3.148  -0.246   0.083  1.00  0.00    +0.057 A 
ATOM     27  C   UNL     1       4.832   1.874   1.370  1.00  0.00    +0.014 A 
ATOM     28  C   UNL     1       4.532  -0.139  -0.133  1.00  0.00    +0.095 A 
ATOM     29  C   UNL     1       5.307   0.895   0.504  1.00  0.00    +0.023 A 
ATOM     30  N   UNL     1       5.341  -0.891  -0.894  1.00  0.00    -0.173 NA
ATOM     31  C   UNL     1       6.610   0.739   0.097  1.00  0.00    +0.043 A 
ATOM     32  N   UNL     1       6.568  -0.354  -0.736  1.00  0.00    -0.272 N 
ATOM     33  C   UNL     1       7.858   1.480   0.399  1.00  0.00    +0.067 C 
ATOM     34  C   UNL     1       7.682  -0.950  -1.439  1.00  0.00    +0.174 C 
ENDBRANCH  22  24
ENDBRANCH  20  22
ENDBRANCH   1  16
TORSDOF 6
