REMARK SMILES Cc1ccc(Nc2ncc(C)c(Nc3ccc4c(C)n(C)nc4c3)n2)cc1S(N)(=O)=O
REMARK SMILES IDX 6 1 5 3 2 4 3 5 27 6 4 7 26 8 1 9 28 10 30 11 31 12 29 13
REMARK SMILES IDX 7 16 8 17 25 18 9 19 12 20 10 21 11 22 13 23 14 25 15 26
REMARK SMILES IDX 24 27 16 28 23 29 17 30 22 31 18 32 20 33 19 34 21 35
REMARK H PARENT 6 2 29 14 29 15 13 24
ROOT
ATOM      1  N   UNL     1      -2.870   1.605  -0.806  1.00  0.00    -0.324 N 
ATOM      2  H   UNL     1      -3.032   2.626  -0.985  1.00  0.00    +0.170 HD
ENDROOT
BRANCH   1   3
ATOM      3  C   UNL     1      -3.887   0.832  -0.147  1.00  0.00    +0.042 A 
ATOM      4  C   UNL     1      -5.869  -0.572   1.289  1.00  0.00    -0.031 A 
ATOM      5  C   UNL     1      -4.566  -1.077   1.191  1.00  0.00    +0.007 A 
ATOM      6  C   UNL     1      -6.192   0.645   0.631  1.00  0.00    +0.087 A 
ATOM      7  C   UNL     1      -3.584  -0.382   0.490  1.00  0.00    +0.026 A 
ATOM      8  C   UNL     1      -5.190   1.338  -0.073  1.00  0.00    +0.048 A 
ATOM      9  C   UNL     1      -6.881  -1.339   2.115  1.00  0.00    +0.046 C 
BRANCH   6  10
ATOM     10  S   UNL     1      -7.837   1.307   0.644  1.00  0.00    +0.238 S 
ATOM     11  O   UNL     1      -8.358   1.401   2.054  1.00  0.00    -0.207 OA
ATOM     12  O   UNL     1      -7.827   2.683   0.051  1.00  0.00    -0.207 OA
BRANCH  10  13
ATOM     13  N   UNL     1      -8.862   0.286  -0.301  1.00  0.00    -0.225 NA
ATOM     14  H   UNL     1      -9.818   0.720  -0.290  1.00  0.00    +0.137 HD
ATOM     15  H   UNL     1      -8.489   0.334  -1.282  1.00  0.00    +0.137 HD
ENDBRANCH  10  13
ENDBRANCH   6  10
ENDBRANCH   1   3
BRANCH   1  16
ATOM     16  C   UNL     1      -1.647   1.046  -1.302  1.00  0.00    +0.229 A 
ATOM     17  N   UNL     1      -1.677  -0.099  -2.031  1.00  0.00    -0.221 NA
ATOM     18  N   UNL     1      -0.467   1.672  -1.071  1.00  0.00    -0.195 NA
ATOM     19  C   UNL     1      -0.535  -0.623  -2.546  1.00  0.00    +0.122 A 
ATOM     20  C   UNL     1       0.707   1.167  -1.522  1.00  0.00    +0.138 A 
ATOM     21  C   UNL     1       0.690   0.024  -2.353  1.00  0.00    +0.010 A 
ATOM     22  C   UNL     1       1.926  -0.525  -3.007  1.00  0.00    +0.050 C 
BRANCH  20  23
ATOM     23  N   UNL     1       1.921   1.795  -1.113  1.00  0.00    -0.340 N 
ATOM     24  H   UNL     1       1.930   2.845  -1.120  1.00  0.00    +0.168 HD
BRANCH  23  25
ATOM     25  C   UNL     1       3.009   1.114  -0.466  1.00  0.00    +0.042 A 
ATOM     26  C   UNL     1       2.818  -0.161   0.139  1.00  0.00    +0.027 A 
ATOM     27  C   UNL     1       4.279   1.731  -0.412  1.00  0.00    +0.057 A 
ATOM     28  C   UNL     1       3.898  -0.848   0.714  1.00  0.00    +0.014 A 
ATOM     29  C   UNL     1       5.321   1.028   0.180  1.00  0.00    +0.095 A 
ATOM     30  C   UNL     1       5.139  -0.218   0.719  1.00  0.00    +0.023 A 
ATOM     31  N   UNL     1       6.613   1.397   0.282  1.00  0.00    -0.173 NA
ATOM     32  C   UNL     1       6.378  -0.602   1.183  1.00  0.00    +0.043 A 
ATOM     33  N   UNL     1       7.248   0.401   0.891  1.00  0.00    -0.272 N 
ATOM     34  C   UNL     1       6.756  -1.940   1.739  1.00  0.00    +0.067 C 
ATOM     35  C   UNL     1       8.693   0.375   1.090  1.00  0.00    +0.174 C 
ENDBRANCH  23  25
ENDBRANCH  20  23
ENDBRANCH   1  16
TORSDOF 6
