REMARK SMILES Cc1ccc(Nc2ncnc(N(C)c3ccc4c(C)n(C)nc4c3)n2)cc1S(N)(=O)=O
REMARK SMILES IDX 6 1 5 3 2 4 3 5 27 6 4 7 26 8 1 9 28 10 30 11 31 12 29 13
REMARK SMILES IDX 7 16 8 17 25 18 9 19 11 20 10 21 12 22 13 23 14 24 15 25
REMARK SMILES IDX 24 26 16 27 23 28 17 29 22 30 18 31 20 32 19 33 21 34
REMARK H PARENT 6 2 29 14 29 15
ROOT
ATOM      1  N   UNL     1       2.689  -0.117   2.119  1.00  0.00    -0.324 N 
ATOM      2  H   UNL     1       2.943  -0.451   3.080  1.00  0.00    +0.170 HD
ENDROOT
BRANCH   1   3
ATOM      3  C   UNL     1       3.728  -0.050   1.125  1.00  0.00    +0.042 A 
ATOM      4  C   UNL     1       5.894   0.195  -0.661  1.00  0.00    -0.031 A 
ATOM      5  C   UNL     1       4.716   0.936  -0.853  1.00  0.00    +0.007 A 
ATOM      6  C   UNL     1       5.992  -0.674   0.453  1.00  0.00    +0.087 A 
ATOM      7  C   UNL     1       3.642   0.816   0.027  1.00  0.00    +0.026 A 
ATOM      8  C   UNL     1       4.900  -0.791   1.326  1.00  0.00    +0.048 A 
ATOM      9  C   UNL     1       7.051   0.427  -1.596  1.00  0.00    +0.046 C 
BRANCH   6  10
ATOM     10  S   UNL     1       7.467  -1.599   0.812  1.00  0.00    +0.238 S 
ATOM     11  O   UNL     1       7.798  -2.499  -0.344  1.00  0.00    -0.207 OA
ATOM     12  O   UNL     1       7.263  -2.458   2.028  1.00  0.00    -0.207 OA
BRANCH  10  13
ATOM     13  N   UNL     1       8.793  -0.527   1.125  1.00  0.00    -0.225 NA
ATOM     14  H   UNL     1       9.253  -0.318   0.213  1.00  0.00    +0.137 HD
ATOM     15  H   UNL     1       8.396   0.370   1.488  1.00  0.00    +0.137 HD
ENDBRANCH  10  13
ENDBRANCH   6  10
ENDBRANCH   1   3
BRANCH   1  16
ATOM     16  C   UNL     1       1.336   0.321   1.920  1.00  0.00    +0.232 A 
ATOM     17  N   UNL     1       0.642   0.833   2.966  1.00  0.00    -0.201 NA
ATOM     18  N   UNL     1       0.714   0.149   0.723  1.00  0.00    -0.176 NA
ATOM     19  C   UNL     1      -0.652   1.206   2.813  1.00  0.00    +0.230 A 
ATOM     20  C   UNL     1      -0.592   0.507   0.569  1.00  0.00    +0.234 A 
ATOM     21  N   UNL     1      -1.266   1.045   1.620  1.00  0.00    -0.201 NA
BRANCH  20  22
ATOM     22  N   UNL     1      -1.271   0.274  -0.682  1.00  0.00    -0.313 N 
ATOM     23  C   UNL     1      -0.519   0.279  -1.942  1.00  0.00    +0.153 C 
BRANCH  22  24
ATOM     24  C   UNL     1      -2.710   0.186  -0.708  1.00  0.00    +0.046 A 
ATOM     25  C   UNL     1      -3.470   0.898  -1.678  1.00  0.00    +0.027 A 
ATOM     26  C   UNL     1      -3.380  -0.592   0.264  1.00  0.00    +0.057 A 
ATOM     27  C   UNL     1      -4.879   0.861  -1.664  1.00  0.00    +0.014 A 
ATOM     28  C   UNL     1      -4.771  -0.608   0.251  1.00  0.00    +0.095 A 
ATOM     29  C   UNL     1      -5.495   0.091  -0.678  1.00  0.00    +0.023 A 
ATOM     30  N   UNL     1      -5.589  -1.236   1.117  1.00  0.00    -0.173 NA
ATOM     31  C   UNL     1      -6.816  -0.138  -0.356  1.00  0.00    +0.043 A 
ATOM     32  N   UNL     1      -6.829  -0.936   0.744  1.00  0.00    -0.272 N 
ATOM     33  C   UNL     1      -8.024   0.465  -1.007  1.00  0.00    +0.067 C 
ATOM     34  C   UNL     1      -8.014  -1.428   1.440  1.00  0.00    +0.174 C 
ENDBRANCH  22  24
ENDBRANCH  20  22
ENDBRANCH   1  16
TORSDOF 6
