REMARK SMILES CNNCc1ccc(C(=O)NC(C)C)cc1
REMARK SMILES IDX 5 1 6 2 7 3 8 4 15 5 16 6 4 7 3 8 2 10 1 11 9 13 10 14 11 15
REMARK SMILES IDX 12 17 13 18 14 19
REMARK H PARENT 3 9 2 12 11 16
ROOT
ATOM      1  C   UNL     1      -1.931  -0.527   0.396  1.00  0.00    -0.033 A 
ATOM      2  C   UNL     1      -1.129   0.603   0.613  1.00  0.00    +0.006 A 
ATOM      3  C   UNL     1       0.216   0.608   0.230  1.00  0.00    +0.014 A 
ATOM      4  C   UNL     1       0.776  -0.525  -0.372  1.00  0.00    +0.039 A 
ATOM      5  C   UNL     1      -0.025  -1.648  -0.611  1.00  0.00    +0.014 A 
ATOM      6  C   UNL     1      -1.369  -1.650  -0.227  1.00  0.00    +0.006 A 
ENDROOT
BRANCH   1   7
ATOM      7  C   UNL     1      -3.388  -0.518   0.801  1.00  0.00    +0.134 C 
BRANCH   7   8
ATOM      8  N   UNL     1      -4.171   0.353  -0.089  1.00  0.00    -0.254 NA
ATOM      9  H   UNL     1      -4.043   0.000  -1.044  1.00  0.00    +0.142 HD
BRANCH   8  10
ATOM     10  N   UNL     1      -5.572   0.297   0.298  1.00  0.00    -0.261 NA
ATOM     11  C   UNL     1      -6.346   1.117  -0.635  1.00  0.00    +0.120 C 
ATOM     12  H   UNL     1      -5.701   0.688   1.237  1.00  0.00    +0.141 HD
ENDBRANCH   8  10
ENDBRANCH   7   8
ENDBRANCH   1   7
BRANCH   4  13
ATOM     13  C   UNL     1       2.202  -0.569  -0.799  1.00  0.00    +0.251 C 
ATOM     14  O   UNL     1       2.547  -1.303  -1.718  1.00  0.00    -0.269 OA
ATOM     15  N   UNL     1       3.078   0.222  -0.081  1.00  0.00    -0.350 N 
ATOM     16  H   UNL     1       2.767   0.584   0.810  1.00  0.00    +0.164 HD
BRANCH  15  17
ATOM     17  C   UNL     1       4.515   0.163  -0.315  1.00  0.00    +0.076 C 
ATOM     18  C   UNL     1       5.132  -1.028   0.415  1.00  0.00    +0.030 C 
ATOM     19  C   UNL     1       5.168   1.467   0.130  1.00  0.00    +0.030 C 
ENDBRANCH  15  17
ENDBRANCH   4  13
TORSDOF 5
