REMARK SMILES CNNCc1ccc(C(=O)NC(C)C)cc1
REMARK SMILES IDX 8 1 7 2 6 3 5 4 16 5 15 6 9 7 11 8 10 9 12 11 13 12 14 13
REMARK SMILES IDX 4 14 3 15 2 17 1 18
REMARK H PARENT 11 10 3 16 2 19
ROOT
ATOM      1  C   UNL     1      -0.755   0.541   0.501  1.00  0.00    +0.039 A 
ATOM      2  C   UNL     1      -0.320  -0.791   0.353  1.00  0.00    +0.014 A 
ATOM      3  C   UNL     1       1.042  -1.099   0.391  1.00  0.00    +0.006 A 
ATOM      4  C   UNL     1       1.994  -0.087   0.604  1.00  0.00    -0.033 A 
ATOM      5  C   UNL     1       1.566   1.242   0.750  1.00  0.00    +0.006 A 
ATOM      6  C   UNL     1       0.203   1.553   0.705  1.00  0.00    +0.014 A 
ENDROOT
BRANCH   1   7
ATOM      7  C   UNL     1      -2.198   0.884   0.475  1.00  0.00    +0.251 C 
ATOM      8  N   UNL     1      -3.143   0.069  -0.240  1.00  0.00    -0.350 N 
ATOM      9  O   UNL     1      -2.597   1.915   1.084  1.00  0.00    -0.269 OA
ATOM     10  H   UNL     1      -2.794  -0.713  -0.841  1.00  0.00    +0.164 HD
BRANCH   8  11
ATOM     11  C   UNL     1      -4.590   0.196  -0.040  1.00  0.00    +0.076 C 
ATOM     12  C   UNL     1      -5.028  -0.693   1.126  1.00  0.00    +0.030 C 
ATOM     13  C   UNL     1      -5.335  -0.182  -1.322  1.00  0.00    +0.030 C 
ENDBRANCH   8  11
ENDBRANCH   1   7
BRANCH   4  14
ATOM     14  C   UNL     1       3.460  -0.415   0.621  1.00  0.00    +0.134 C 
BRANCH  14  15
ATOM     15  N   UNL     1       4.036  -0.181  -0.705  1.00  0.00    -0.254 NA
ATOM     16  H   UNL     1       4.088   0.851  -0.887  1.00  0.00    +0.142 HD
BRANCH  15  17
ATOM     17  N   UNL     1       5.314  -0.784  -0.762  1.00  0.00    -0.261 NA
ATOM     18  C   UNL     1       6.373   0.187  -0.458  1.00  0.00    +0.120 C 
ATOM     19  H   UNL     1       5.456  -1.107  -1.748  1.00  0.00    +0.141 HD
ENDBRANCH  15  17
ENDBRANCH  14  15
ENDBRANCH   4  14
TORSDOF 5
