REMARK SMILES CNCc1ccc(C(=O)NC(C)C)cc1
REMARK SMILES IDX 7 1 6 2 5 3 4 4 15 5 14 6 8 7 10 8 9 9 11 11 12 12 13 13
REMARK SMILES IDX 3 14 2 15 1 16
REMARK H PARENT 10 10 2 17
ROOT
ATOM      1  C   UNL     1      -0.368  -0.666  -0.219  1.00  0.00    +0.039 A 
ATOM      2  C   UNL     1       0.530  -1.741  -0.338  1.00  0.00    +0.014 A 
ATOM      3  C   UNL     1       1.885  -1.510  -0.591  1.00  0.00    +0.006 A 
ATOM      4  C   UNL     1       2.364  -0.202  -0.750  1.00  0.00    -0.034 A 
ATOM      5  C   UNL     1       1.473   0.875  -0.629  1.00  0.00    +0.006 A 
ATOM      6  C   UNL     1       0.118   0.646  -0.374  1.00  0.00    +0.014 A 
ENDROOT
BRANCH   1   7
ATOM      7  C   UNL     1      -1.804  -0.924   0.044  1.00  0.00    +0.251 C 
ATOM      8  N   UNL     1      -2.637   0.072   0.661  1.00  0.00    -0.350 N 
ATOM      9  O   UNL     1      -2.297  -2.044  -0.264  1.00  0.00    -0.269 OA
ATOM     10  H   UNL     1      -2.183   0.887   1.133  1.00  0.00    +0.164 HD
BRANCH   8  11
ATOM     11  C   UNL     1      -4.095  -0.073   0.742  1.00  0.00    +0.076 C 
ATOM     12  C   UNL     1      -4.674   0.910   1.766  1.00  0.00    +0.030 C 
ATOM     13  C   UNL     1      -4.723   0.162  -0.635  1.00  0.00    +0.030 C 
ENDBRANCH   8  11
ENDBRANCH   1   7
BRANCH   4  14
ATOM     14  C   UNL     1       3.828   0.046  -0.986  1.00  0.00    +0.116 C 
BRANCH  14  15
ATOM     15  N   UNL     1       4.536   0.092   0.298  1.00  0.00    -0.316 NA
ATOM     16  C   UNL     1       5.976   0.230   0.079  1.00  0.00    +0.101 C 
ATOM     17  H   UNL     1       4.215   0.944   0.816  1.00  0.00    +0.122 HD
ENDBRANCH  14  15
ENDBRANCH   4  14
TORSDOF 4
