REMARK SMILES CNC(=O)c1cc(Oc2ccc(NC(=O)Nc3ccc(Cl)c(C(F)(F)F)c3)c(F)c2)ccn1
REMARK SMILES IDX 9 1 10 2 11 3 12 4 28 5 29 6 30 7 8 8 7 9 5 10 6 11 33 12
REMARK SMILES IDX 32 13 31 14 3 15 2 16 4 17 1 18 13 20 14 21 15 22 16 23
REMARK SMILES IDX 17 26 18 27 27 28 19 29 22 30 20 31 21 32 23 33 24 34 25 35
REMARK SMILES IDX 26 36
REMARK H PARENT 2 19 13 24 16 25
ROOT
ATOM      1  C   UNL     1      -1.820   0.433   1.678  1.00  0.00    +0.130 A 
ATOM      2  C   UNL     1      -1.263   0.094   0.432  1.00  0.00    +0.049 A 
ATOM      3  C   UNL     1       0.030  -0.438   0.357  1.00  0.00    +0.033 A 
ATOM      4  C   UNL     1       0.781  -0.630   1.531  1.00  0.00    +0.079 A 
ATOM      5  C   UNL     1       0.225  -0.281   2.768  1.00  0.00    +0.150 A 
ATOM      6  F   UNL     1       0.939  -0.471   3.904  1.00  0.00    -0.205 F 
ATOM      7  C   UNL     1      -1.057   0.260   2.839  1.00  0.00    +0.088 A 
ENDROOT
BRANCH   1   8
ATOM      8  O   UNL     1      -3.135   0.884   1.815  1.00  0.00    -0.457 OA
BRANCH   8   9
ATOM      9  C   UNL     1      -4.026   1.107   0.760  1.00  0.00    +0.131 A 
ATOM     10  C   UNL     1      -6.088   0.531  -0.376  1.00  0.00    +0.131 A 
ATOM     11  C   UNL     1      -5.159   0.299   0.652  1.00  0.00    +0.081 A 
ATOM     12  N   UNL     1      -5.866   1.548  -1.252  1.00  0.00    -0.251 NA
ATOM     13  C   UNL     1      -4.781   2.359  -1.160  1.00  0.00    +0.116 A 
ATOM     14  C   UNL     1      -3.830   2.146  -0.160  1.00  0.00    +0.067 A 
BRANCH  10  15
ATOM     15  C   UNL     1      -7.291  -0.317  -0.527  1.00  0.00    +0.269 C 
ATOM     16  N   UNL     1      -8.284  -0.005  -1.520  1.00  0.00    -0.354 N 
ATOM     17  O   UNL     1      -7.444  -1.326   0.220  1.00  0.00    -0.268 OA
ATOM     18  C   UNL     1      -9.391  -0.907  -1.799  1.00  0.00    +0.143 C 
ATOM     19  H   UNL     1      -8.235   0.891  -2.057  1.00  0.00    +0.163 HD
ENDBRANCH  10  15
ENDBRANCH   8   9
ENDBRANCH   1   8
BRANCH   4  20
ATOM     20  N   UNL     1       2.068  -1.263   1.505  1.00  0.00    -0.305 N 
ATOM     21  C   UNL     1       3.104  -0.950   0.568  1.00  0.00    +0.323 C 
ATOM     22  O   UNL     1       2.916  -0.086  -0.333  1.00  0.00    -0.248 OA
ATOM     23  N   UNL     1       4.355  -1.652   0.669  1.00  0.00    -0.308 N 
ATOM     24  H   UNL     1       2.311  -1.915   2.280  1.00  0.00    +0.171 HD
ATOM     25  H   UNL     1       4.328  -2.572   1.162  1.00  0.00    +0.171 HD
BRANCH  23  26
ATOM     26  C   UNL     1       5.629  -1.202   0.164  1.00  0.00    +0.043 A 
ATOM     27  C   UNL     1       6.692  -2.113   0.090  1.00  0.00    +0.028 A 
ATOM     28  C   UNL     1       5.876   0.153  -0.132  1.00  0.00    +0.040 A 
ATOM     29  C   UNL     1       7.958  -1.703  -0.329  1.00  0.00    +0.023 A 
ATOM     30  C   UNL     1       7.145   0.582  -0.570  1.00  0.00    +0.076 A 
ATOM     31  C   UNL     1       8.193  -0.365  -0.658  1.00  0.00    +0.053 A 
ATOM     32 Cl   UNL     1       9.824   0.086  -1.148  1.00  0.00    -0.084 Cl
BRANCH  30  33
ATOM     33  C   UNL     1       7.376   2.037  -0.927  1.00  0.00    +0.417 C 
ATOM     34  F   UNL     1       7.898   2.126  -2.206  1.00  0.00    -0.166 F 
ATOM     35  F   UNL     1       8.265   2.606  -0.034  1.00  0.00    -0.166 F 
ATOM     36  F   UNL     1       6.200   2.768  -0.896  1.00  0.00    -0.166 F 
ENDBRANCH  30  33
ENDBRANCH  23  26
ENDBRANCH   4  20
TORSDOF 6
