REMARK SMILES CNC(=O)c1cc(Oc2ccc(NC(=O)Nc3ccc(Cl)c(C(F)(F)F)c3)c(F)c2)ccn1
REMARK SMILES IDX 9 1 10 2 11 3 12 4 28 5 29 6 30 7 8 8 7 9 5 10 6 11 33 12
REMARK SMILES IDX 32 13 31 14 3 15 2 16 4 17 1 18 13 20 14 21 15 22 16 23
REMARK SMILES IDX 17 26 18 27 27 28 19 29 22 30 20 31 21 32 23 33 24 34 25 35
REMARK SMILES IDX 26 36
REMARK H PARENT 2 19 13 24 16 25
ROOT
ATOM      1  C   UNL     1      -2.044  -2.107  -1.259  1.00  0.00    +0.130 A 
ATOM      2  C   UNL     1      -1.481  -0.850  -1.500  1.00  0.00    +0.049 A 
ATOM      3  C   UNL     1      -0.144  -0.601  -1.166  1.00  0.00    +0.033 A 
ATOM      4  C   UNL     1       0.639  -1.612  -0.609  1.00  0.00    +0.079 A 
ATOM      5  C   UNL     1       0.056  -2.869  -0.392  1.00  0.00    +0.150 A 
ATOM      6  F   UNL     1       0.797  -3.853   0.143  1.00  0.00    -0.205 F 
ATOM      7  C   UNL     1      -1.270  -3.129  -0.720  1.00  0.00    +0.088 A 
ENDROOT
BRANCH   1   8
ATOM      8  O   UNL     1      -3.341  -2.410  -1.601  1.00  0.00    -0.457 OA
BRANCH   8   9
ATOM      9  C   UNL     1      -4.325  -1.561  -1.147  1.00  0.00    +0.131 A 
ATOM     10  C   UNL     1      -5.447  -0.286   0.509  1.00  0.00    +0.131 A 
ATOM     11  C   UNL     1      -4.384  -1.106   0.166  1.00  0.00    +0.081 A 
ATOM     12  N   UNL     1      -6.434   0.089  -0.356  1.00  0.00    -0.251 NA
ATOM     13  C   UNL     1      -6.349  -0.396  -1.613  1.00  0.00    +0.116 A 
ATOM     14  C   UNL     1      -5.328  -1.222  -2.050  1.00  0.00    +0.067 A 
BRANCH  10  15
ATOM     15  C   UNL     1      -5.556   0.242   1.908  1.00  0.00    +0.269 C 
ATOM     16  N   UNL     1      -6.672   1.018   2.135  1.00  0.00    -0.354 N 
ATOM     17  O   UNL     1      -4.704  -0.005   2.754  1.00  0.00    -0.268 OA
ATOM     18  C   UNL     1      -6.887   1.719   3.371  1.00  0.00    +0.143 C 
ATOM     19  H   UNL     1      -7.243   1.225   1.319  1.00  0.00    +0.163 HD
ENDBRANCH  10  15
ENDBRANCH   8   9
ENDBRANCH   1   8
BRANCH   4  20
ATOM     20  N   UNL     1       1.991  -1.459  -0.228  1.00  0.00    -0.305 N 
ATOM     21  C   UNL     1       2.822  -0.380  -0.479  1.00  0.00    +0.323 C 
ATOM     22  O   UNL     1       2.519   0.591  -1.157  1.00  0.00    -0.248 OA
ATOM     23  N   UNL     1       4.045  -0.559   0.152  1.00  0.00    -0.308 N 
ATOM     24  H   UNL     1       2.420  -2.295   0.144  1.00  0.00    +0.171 HD
ATOM     25  H   UNL     1       4.069  -1.278   0.860  1.00  0.00    +0.171 HD
BRANCH  23  26
ATOM     26  C   UNL     1       5.186   0.263   0.061  1.00  0.00    +0.043 A 
ATOM     27  C   UNL     1       6.245  -0.018   0.929  1.00  0.00    +0.028 A 
ATOM     28  C   UNL     1       5.323   1.315  -0.850  1.00  0.00    +0.040 A 
ATOM     29  C   UNL     1       7.412   0.749   0.895  1.00  0.00    +0.023 A 
ATOM     30  C   UNL     1       6.496   2.098  -0.898  1.00  0.00    +0.076 A 
ATOM     31  C   UNL     1       7.537   1.803  -0.012  1.00  0.00    +0.053 A 
ATOM     32 Cl   UNL     1       9.011   2.701   0.011  1.00  0.00    -0.084 Cl
BRANCH  30  33
ATOM     33  C   UNL     1       6.608   3.224  -1.891  1.00  0.00    +0.417 C 
ATOM     34  F   UNL     1       5.504   3.362  -2.681  1.00  0.00    -0.166 F 
ATOM     35  F   UNL     1       6.782   4.439  -1.301  1.00  0.00    -0.166 F 
ATOM     36  F   UNL     1       7.648   3.065  -2.757  1.00  0.00    -0.166 F 
ENDBRANCH  30  33
ENDBRANCH  23  26
ENDBRANCH   4  20
TORSDOF 6
