REMARK SMILES CN(C)C(=O)c1cc2cnc(Nc3ccc(N4CCNCC4)cn3)nc2n1C1CCCC1
REMARK SMILES IDX 12 1 11 3 6 4 7 5 27 6 8 7 26 8 9 9 25 10 10 11 4 12 2 13
REMARK SMILES IDX 5 14 1 15 3 16 28 17 29 18 32 19 30 20 31 21 13 22 14 23
REMARK SMILES IDX 24 24 15 25 23 26 16 27 17 28 18 29 22 30 19 31 21 32 20 33
REMARK H PARENT 12 2 20 34
ROOT
ATOM      1  N   UNL     1       1.264   0.575   0.216  1.00  0.00    -0.309 N 
ATOM      2  H   UNL     1       1.065   1.558   0.121  1.00  0.00    +0.171 HD
ENDROOT
BRANCH   1   3
ATOM      3  C   UNL     1       0.110  -0.184   0.308  1.00  0.00    +0.230 A 
ATOM      4  C   UNL     1      -4.326  -0.802   0.419  1.00  0.00    +0.109 A 
ATOM      5  C   UNL     1      -3.555  -1.955   0.530  1.00  0.00    +0.045 A 
ATOM      6  N   UNL     1      -3.442   0.263   0.323  1.00  0.00    -0.318 N 
ATOM      7  C   UNL     1      -2.193  -1.590   0.474  1.00  0.00    +0.038 A 
ATOM      8  C   UNL     1      -2.146  -0.217   0.343  1.00  0.00    +0.146 A 
ATOM      9  C   UNL     1      -0.970  -2.242   0.525  1.00  0.00    +0.127 A 
ATOM     10  N   UNL     1      -1.030   0.525   0.254  1.00  0.00    -0.194 NA
ATOM     11  N   UNL     1       0.173  -1.525   0.436  1.00  0.00    -0.221 NA
BRANCH   4  12
ATOM     12  C   UNL     1      -5.775  -0.717   0.471  1.00  0.00    +0.270 C 
ATOM     13  N   UNL     1      -6.500  -1.558  -0.375  1.00  0.00    -0.343 N 
ATOM     14  O   UNL     1      -6.341   0.051   1.245  1.00  0.00    -0.267 OA
ATOM     15  C   UNL     1      -7.941  -1.631  -0.210  1.00  0.00    +0.146 C 
ATOM     16  C   UNL     1      -5.959  -2.200  -1.565  1.00  0.00    +0.146 C 
ENDBRANCH   4  12
BRANCH   6  17
ATOM     17  C   UNL     1      -3.750   1.678   0.194  1.00  0.00    +0.089 C 
ATOM     18  C   UNL     1      -4.717   2.066  -0.932  1.00  0.00    +0.025 C 
ATOM     19  C   UNL     1      -4.284   2.349   1.470  1.00  0.00    +0.025 C 
ATOM     20  C   UNL     1      -5.242   3.421  -0.480  1.00  0.00    +0.002 C 
ATOM     21  C   UNL     1      -5.439   3.242   1.018  1.00  0.00    +0.002 C 
ENDBRANCH   6  17
ENDBRANCH   1   3
BRANCH   1  22
ATOM     22  C   UNL     1       2.618   0.306   0.228  1.00  0.00    +0.132 A 
ATOM     23  C   UNL     1       3.169  -0.959   0.361  1.00  0.00    +0.049 A 
ATOM     24  N   UNL     1       3.413   1.387   0.101  1.00  0.00    -0.237 NA
ATOM     25  C   UNL     1       4.561  -1.124   0.354  1.00  0.00    +0.031 A 
ATOM     26  C   UNL     1       4.760   1.195   0.104  1.00  0.00    +0.139 A 
ATOM     27  C   UNL     1       5.418  -0.034   0.204  1.00  0.00    +0.055 A 
BRANCH  27  28
ATOM     28  N   UNL     1       6.817  -0.132   0.197  1.00  0.00    -0.368 N 
ATOM     29  C   UNL     1       7.482   0.560  -0.934  1.00  0.00    +0.132 C 
ATOM     30  C   UNL     1       7.426  -1.437   0.531  1.00  0.00    +0.132 C 
ATOM     31  C   UNL     1       9.016   0.602  -0.740  1.00  0.00    +0.102 C 
ATOM     32  C   UNL     1       8.958  -1.313   0.687  1.00  0.00    +0.102 C 
ATOM     33  N   UNL     1       9.623  -0.720  -0.491  1.00  0.00    -0.313 NA
ATOM     34  H   UNL     1       9.429  -1.314  -1.297  1.00  0.00    +0.122 HD
ENDBRANCH  27  28
ENDBRANCH   1  22
TORSDOF 5
