REMARK SMILES CN(C)C(=O)c1cc2cnc(Nc3ccc(N4CCNCC4)cn3)nc2n1C1CCCC1
REMARK SMILES IDX 12 1 11 3 6 4 7 5 27 6 8 7 26 8 9 9 25 10 10 11 4 12 2 13
REMARK SMILES IDX 5 14 1 15 3 16 28 17 29 18 32 19 30 20 31 21 13 22 14 23
REMARK SMILES IDX 24 24 15 25 23 26 16 27 17 28 18 29 22 30 19 31 21 32 20 33
REMARK H PARENT 12 2 20 34
ROOT
ATOM      1  N   UNL     1       1.218   1.827   2.330  1.00  0.00    -0.309 N 
ATOM      2  H   UNL     1       1.497   2.489   3.036  1.00  0.00    +0.171 HD
ENDROOT
BRANCH   1   3
ATOM      3  C   UNL     1      -0.157   1.778   2.180  1.00  0.00    +0.230 A 
ATOM      4  C   UNL     1      -4.215   0.643   0.657  1.00  0.00    +0.109 A 
ATOM      5  C   UNL     1      -4.198   1.585   1.681  1.00  0.00    +0.045 A 
ATOM      6  N   UNL     1      -2.892   0.299   0.410  1.00  0.00    -0.318 N 
ATOM      7  C   UNL     1      -2.857   1.835   2.040  1.00  0.00    +0.038 A 
ATOM      8  C   UNL     1      -2.067   1.031   1.242  1.00  0.00    +0.146 A 
ATOM      9  C   UNL     1      -2.187   2.639   2.951  1.00  0.00    +0.127 A 
ATOM     10  N   UNL     1      -0.726   0.969   1.273  1.00  0.00    -0.194 NA
ATOM     11  N   UNL     1      -0.837   2.603   3.005  1.00  0.00    -0.221 NA
BRANCH   4  12
ATOM     12  C   UNL     1      -5.386   0.067   0.022  1.00  0.00    +0.270 C 
ATOM     13  N   UNL     1      -6.360   0.948  -0.452  1.00  0.00    -0.343 N 
ATOM     14  O   UNL     1      -5.526  -1.150  -0.077  1.00  0.00    -0.267 OA
ATOM     15  C   UNL     1      -6.133   2.357  -0.737  1.00  0.00    +0.146 C 
ATOM     16  C   UNL     1      -7.624   0.400  -0.913  1.00  0.00    +0.146 C 
ENDBRANCH   4  12
BRANCH   6  17
ATOM     17  C   UNL     1      -2.378  -0.647  -0.566  1.00  0.00    +0.089 C 
ATOM     18  C   UNL     1      -2.597  -2.128  -0.218  1.00  0.00    +0.025 C 
ATOM     19  C   UNL     1      -2.856  -0.470  -2.012  1.00  0.00    +0.025 C 
ATOM     20  C   UNL     1      -3.028  -2.801  -1.521  1.00  0.00    +0.002 C 
ATOM     21  C   UNL     1      -2.610  -1.841  -2.624  1.00  0.00    +0.002 C 
ENDBRANCH   6  17
ENDBRANCH   1   3
BRANCH   1  22
ATOM     22  C   UNL     1       2.290   1.185   1.743  1.00  0.00    +0.132 A 
ATOM     23  C   UNL     1       2.184   0.215   0.759  1.00  0.00    +0.049 A 
ATOM     24  N   UNL     1       3.500   1.565   2.199  1.00  0.00    -0.237 NA
ATOM     25  C   UNL     1       3.339  -0.373   0.222  1.00  0.00    +0.031 A 
ATOM     26  C   UNL     1       4.601   0.973   1.663  1.00  0.00    +0.139 A 
ATOM     27  C   UNL     1       4.610   0.008   0.652  1.00  0.00    +0.055 A 
BRANCH  27  28
ATOM     28  N   UNL     1       5.801  -0.546   0.162  1.00  0.00    -0.368 N 
ATOM     29  C   UNL     1       6.823   0.446  -0.253  1.00  0.00    +0.132 C 
ATOM     30  C   UNL     1       5.708  -1.712  -0.742  1.00  0.00    +0.132 C 
ATOM     31  C   UNL     1       8.177  -0.238  -0.555  1.00  0.00    +0.102 C 
ATOM     32  C   UNL     1       7.102  -2.323  -1.009  1.00  0.00    +0.102 C 
ATOM     33  N   UNL     1       8.083  -1.347  -1.525  1.00  0.00    -0.313 NA
ATOM     34  H   UNL     1       7.724  -0.970  -2.402  1.00  0.00    +0.122 HD
ENDBRANCH  27  28
ENDBRANCH   1  22
TORSDOF 5
