REMARK SMILES CN(C)C(=O)c1cc2cnc(Nc3ccc(N4CCNCC4)cn3)nc2n1C1CCCC1
REMARK SMILES IDX 12 1 11 3 6 4 7 5 27 6 8 7 26 8 9 9 25 10 10 11 4 12 2 13
REMARK SMILES IDX 5 14 1 15 3 16 28 17 29 18 32 19 30 20 31 21 13 22 14 23
REMARK SMILES IDX 24 24 15 25 23 26 16 27 17 28 18 29 22 30 19 31 21 32 20 33
REMARK H PARENT 12 2 20 34
ROOT
ATOM      1  N   UNL     1       1.282   0.405  -0.366  1.00  0.00    -0.309 N 
ATOM      2  H   UNL     1       1.082   1.264  -0.852  1.00  0.00    +0.171 HD
ENDROOT
BRANCH   1   3
ATOM      3  C   UNL     1       0.135  -0.326  -0.105  1.00  0.00    +0.230 A 
ATOM      4  C   UNL     1      -4.278  -1.094  -0.191  1.00  0.00    +0.109 A 
ATOM      5  C   UNL     1      -3.509  -2.077   0.423  1.00  0.00    +0.045 A 
ATOM      6  N   UNL     1      -3.399  -0.115  -0.633  1.00  0.00    -0.318 N 
ATOM      7  C   UNL     1      -2.155  -1.684   0.371  1.00  0.00    +0.038 A 
ATOM      8  C   UNL     1      -2.110  -0.469  -0.284  1.00  0.00    +0.146 A 
ATOM      9  C   UNL     1      -0.936  -2.199   0.786  1.00  0.00    +0.127 A 
ATOM     10  N   UNL     1      -1.001   0.244  -0.542  1.00  0.00    -0.194 NA
ATOM     11  N   UNL     1       0.199  -1.506   0.545  1.00  0.00    -0.221 NA
BRANCH   4  12
ATOM     12  C   UNL     1      -5.714  -1.118  -0.400  1.00  0.00    +0.270 C 
ATOM     13  N   UNL     1      -6.521  -1.318   0.722  1.00  0.00    -0.343 N 
ATOM     14  O   UNL     1      -6.197  -0.990  -1.521  1.00  0.00    -0.267 OA
ATOM     15  C   UNL     1      -7.944  -1.528   0.524  1.00  0.00    +0.146 C 
ATOM     16  C   UNL     1      -6.086  -1.142   2.100  1.00  0.00    +0.146 C 
ENDBRANCH   4  12
BRANCH   6  17
ATOM     17  C   UNL     1      -3.707   1.122  -1.335  1.00  0.00    +0.089 C 
ATOM     18  C   UNL     1      -4.864   1.972  -0.775  1.00  0.00    +0.025 C 
ATOM     19  C   UNL     1      -3.987   0.939  -2.830  1.00  0.00    +0.025 C 
ATOM     20  C   UNL     1      -5.765   2.282  -1.967  1.00  0.00    +0.002 C 
ATOM     21  C   UNL     1      -4.865   2.130  -3.183  1.00  0.00    +0.002 C 
ENDBRANCH   6  17
ENDBRANCH   1   3
BRANCH   1  22
ATOM     22  C   UNL     1       2.630   0.232  -0.123  1.00  0.00    +0.132 A 
ATOM     23  C   UNL     1       3.181  -0.867   0.515  1.00  0.00    +0.049 A 
ATOM     24  N   UNL     1       3.418   1.234  -0.563  1.00  0.00    -0.237 NA
ATOM     25  C   UNL     1       4.567  -0.941   0.718  1.00  0.00    +0.031 A 
ATOM     26  C   UNL     1       4.758   1.130  -0.357  1.00  0.00    +0.139 A 
ATOM     27  C   UNL     1       5.414   0.084   0.297  1.00  0.00    +0.055 A 
BRANCH  27  28
ATOM     28  N   UNL     1       6.807   0.066   0.462  1.00  0.00    -0.368 N 
ATOM     29  C   UNL     1       7.434  -1.176   0.962  1.00  0.00    +0.132 C 
ATOM     30  C   UNL     1       7.377   1.299   1.059  1.00  0.00    +0.132 C 
ATOM     31  C   UNL     1       8.975  -1.095   0.880  1.00  0.00    +0.102 C 
ATOM     32  C   UNL     1       8.922   1.291   0.991  1.00  0.00    +0.102 C 
ATOM     33  N   UNL     1       9.539   0.082   1.571  1.00  0.00    -0.313 NA
ATOM     34  H   UNL     1       9.273   0.031   2.554  1.00  0.00    +0.122 HD
ENDBRANCH  27  28
ENDBRANCH   1  22
TORSDOF 5
