REMARK SMILES CN(C)C(=O)c1cc2cnc(Nc3ccc(N4CCNCC4)cn3)nc2n1C1CCCC1
REMARK SMILES IDX 12 1 11 3 6 4 7 5 27 6 8 7 26 8 9 9 25 10 10 11 4 12 2 13
REMARK SMILES IDX 5 14 1 15 3 16 28 17 29 18 32 19 30 20 31 21 13 22 14 23
REMARK SMILES IDX 24 24 15 25 23 26 16 27 17 28 18 29 22 30 19 31 21 32 20 33
REMARK H PARENT 12 2 20 34
ROOT
ATOM      1  N   UNL     1       1.244  -3.057  -1.265  1.00  0.00    -0.309 N 
ATOM      2  H   UNL     1       1.526  -3.957  -1.719  1.00  0.00    +0.171 HD
ENDROOT
BRANCH   1   3
ATOM      3  C   UNL     1      -0.055  -2.998  -0.666  1.00  0.00    +0.230 A 
ATOM      4  C   UNL     1      -4.132  -1.451   0.206  1.00  0.00    +0.109 A 
ATOM      5  C   UNL     1      -3.788  -2.605   0.914  1.00  0.00    +0.045 A 
ATOM      6  N   UNL     1      -3.131  -1.080  -0.656  1.00  0.00    -0.318 N 
ATOM      7  C   UNL     1      -2.523  -2.920   0.483  1.00  0.00    +0.038 A 
ATOM      8  C   UNL     1      -2.152  -1.984  -0.434  1.00  0.00    +0.146 A 
ATOM      9  C   UNL     1      -1.656  -3.944   0.830  1.00  0.00    +0.127 A 
ATOM     10  N   UNL     1      -0.921  -1.996  -1.006  1.00  0.00    -0.194 NA
ATOM     11  N   UNL     1      -0.431  -3.968   0.233  1.00  0.00    -0.221 NA
BRANCH   4  12
ATOM     12  C   UNL     1      -5.386  -0.732   0.453  1.00  0.00    +0.270 C 
ATOM     13  N   UNL     1      -5.440   0.438   1.297  1.00  0.00    -0.343 N 
ATOM     14  O   UNL     1      -6.440  -1.165  -0.084  1.00  0.00    -0.267 OA
ATOM     15  C   UNL     1      -6.676   1.224   1.352  1.00  0.00    +0.146 C 
ATOM     16  C   UNL     1      -4.324   0.839   2.161  1.00  0.00    +0.146 C 
ENDBRANCH   4  12
BRANCH   6  17
ATOM     17  C   UNL     1      -3.011   0.009  -1.649  1.00  0.00    +0.089 C 
ATOM     18  C   UNL     1      -4.314   0.532  -2.249  1.00  0.00    +0.025 C 
ATOM     19  C   UNL     1      -2.296   1.234  -1.091  1.00  0.00    +0.025 C 
ATOM     20  C   UNL     1      -3.917   1.879  -2.826  1.00  0.00    +0.002 C 
ATOM     21  C   UNL     1      -2.808   2.413  -1.914  1.00  0.00    +0.002 C 
ENDBRANCH   6  17
ENDBRANCH   1   3
BRANCH   1  22
ATOM     22  C   UNL     1       2.255  -2.075  -0.991  1.00  0.00    +0.132 A 
ATOM     23  C   UNL     1       3.540  -2.241  -1.508  1.00  0.00    +0.049 A 
ATOM     24  N   UNL     1       2.000  -1.029  -0.161  1.00  0.00    -0.237 NA
ATOM     25  C   UNL     1       4.551  -1.354  -1.142  1.00  0.00    +0.031 A 
ATOM     26  C   UNL     1       2.966  -0.147   0.213  1.00  0.00    +0.139 A 
ATOM     27  C   UNL     1       4.302  -0.307  -0.222  1.00  0.00    +0.055 A 
BRANCH  27  28
ATOM     28  N   UNL     1       5.382   0.544   0.278  1.00  0.00    -0.368 N 
ATOM     29  C   UNL     1       6.745   0.381  -0.280  1.00  0.00    +0.132 C 
ATOM     30  C   UNL     1       5.064   1.629   1.234  1.00  0.00    +0.132 C 
ATOM     31  C   UNL     1       7.832   1.166   0.461  1.00  0.00    +0.102 C 
ATOM     32  C   UNL     1       6.288   2.299   1.863  1.00  0.00    +0.102 C 
ATOM     33  N   UNL     1       7.360   2.479   0.889  1.00  0.00    -0.313 NA
ATOM     34  H   UNL     1       7.000   3.010   0.061  1.00  0.00    +0.122 HD
ENDBRANCH  27  28
ENDBRANCH   1  22
TORSDOF 5
