REMARK SMILES CN(C)C(=O)c1cc2cnc(Nc3ccc(N4CCNCC4)cn3)nc2n1C1CCCC1
REMARK SMILES IDX 12 1 11 3 6 4 7 5 27 6 8 7 26 8 9 9 25 10 10 11 4 12 2 13
REMARK SMILES IDX 5 14 1 15 3 16 28 17 29 18 32 19 30 20 31 21 13 22 14 23
REMARK SMILES IDX 24 24 15 25 23 26 16 27 17 28 18 29 22 30 19 31 21 32 20 33
REMARK H PARENT 12 2 20 34
ROOT
ATOM      1  N   UNL     1       1.219  -0.478   0.352  1.00  0.00    -0.309 N 
ATOM      2  H   UNL     1       0.945  -1.204   0.994  1.00  0.00    +0.171 HD
ENDROOT
BRANCH   1   3
ATOM      3  C   UNL     1       0.128   0.121  -0.255  1.00  0.00    +0.230 A 
ATOM      4  C   UNL     1      -4.243   0.720  -1.031  1.00  0.00    +0.109 A 
ATOM      5  C   UNL     1      -3.386   1.549  -1.748  1.00  0.00    +0.045 A 
ATOM      6  N   UNL     1      -3.444  -0.105  -0.252  1.00  0.00    -0.318 N 
ATOM      7  C   UNL     1      -2.057   1.238  -1.388  1.00  0.00    +0.038 A 
ATOM      8  C   UNL     1      -2.116   0.215  -0.463  1.00  0.00    +0.146 A 
ATOM      9  C   UNL     1      -0.788   1.682  -1.729  1.00  0.00    +0.127 A 
ATOM     10  N   UNL     1      -1.062  -0.372   0.128  1.00  0.00    -0.194 NA
ATOM     11  N   UNL     1       0.295   1.115  -1.151  1.00  0.00    -0.221 NA
BRANCH   4  12
ATOM     12  C   UNL     1      -5.689   0.671  -1.131  1.00  0.00    +0.270 C 
ATOM     13  N   UNL     1      -6.385   1.866  -0.944  1.00  0.00    -0.343 N 
ATOM     14  O   UNL     1      -6.275  -0.377  -1.393  1.00  0.00    -0.267 OA
ATOM     15  C   UNL     1      -5.835   3.057  -0.312  1.00  0.00    +0.146 C 
ATOM     16  C   UNL     1      -7.812   1.889  -1.214  1.00  0.00    +0.146 C 
ENDBRANCH   4  12
BRANCH   6  17
ATOM     17  C   UNL     1      -3.859  -1.144   0.677  1.00  0.00    +0.089 C 
ATOM     18  C   UNL     1      -4.991  -0.789   1.659  1.00  0.00    +0.025 C 
ATOM     19  C   UNL     1      -4.265  -2.460   0.003  1.00  0.00    +0.025 C 
ATOM     20  C   UNL     1      -6.009  -1.922   1.547  1.00  0.00    +0.002 C 
ATOM     21  C   UNL     1      -5.217  -3.100   1.002  1.00  0.00    +0.002 C 
ENDBRANCH   6  17
ENDBRANCH   1   3
BRANCH   1  22
ATOM     22  C   UNL     1       2.589  -0.319   0.283  1.00  0.00    +0.132 A 
ATOM     23  C   UNL     1       3.235   0.608  -0.520  1.00  0.00    +0.049 A 
ATOM     24  N   UNL     1       3.297  -1.148   1.076  1.00  0.00    -0.237 NA
ATOM     25  C   UNL     1       4.635   0.683  -0.521  1.00  0.00    +0.031 A 
ATOM     26  C   UNL     1       4.654  -1.047   1.056  1.00  0.00    +0.139 A 
ATOM     27  C   UNL     1       5.405  -0.171   0.268  1.00  0.00    +0.055 A 
BRANCH  27  28
ATOM     28  N   UNL     1       6.806  -0.143   0.317  1.00  0.00    -0.368 N 
ATOM     29  C   UNL     1       7.460  -1.463   0.142  1.00  0.00    +0.132 C 
ATOM     30  C   UNL     1       7.505   0.958  -0.381  1.00  0.00    +0.132 C 
ATOM     31  C   UNL     1       8.976  -1.380   0.439  1.00  0.00    +0.102 C 
ATOM     32  C   UNL     1       9.015   0.959  -0.049  1.00  0.00    +0.102 C 
ATOM     33  N   UNL     1       9.678  -0.331  -0.326  1.00  0.00    -0.313 NA
ATOM     34  H   UNL     1       9.569  -0.537  -1.319  1.00  0.00    +0.122 HD
ENDBRANCH  27  28
ENDBRANCH   1  22
TORSDOF 5
