REMARK SMILES CN(C)C(=O)c1cc2cnc(Nc3ccc(N4CCNCC4)cn3)nc2n1C1CCCC1
REMARK SMILES IDX 12 1 11 3 6 4 7 5 27 6 8 7 26 8 9 9 25 10 10 11 4 12 2 13
REMARK SMILES IDX 5 14 1 15 3 16 28 17 29 18 32 19 30 20 31 21 13 22 14 23
REMARK SMILES IDX 24 24 15 25 23 26 16 27 17 28 18 29 22 30 19 31 21 32 20 33
REMARK H PARENT 12 2 20 34
ROOT
ATOM      1  N   UNL     1      -0.857  -0.549   0.075  1.00  0.00    -0.309 N 
ATOM      2  H   UNL     1      -0.582  -1.493   0.293  1.00  0.00    +0.171 HD
ENDROOT
BRANCH   1   3
ATOM      3  C   UNL     1       0.214   0.327   0.106  1.00  0.00    +0.230 A 
ATOM      4  C   UNL     1       4.525   1.422   0.646  1.00  0.00    +0.109 A 
ATOM      5  C   UNL     1       3.676   2.474   0.321  1.00  0.00    +0.045 A 
ATOM      6  N   UNL     1       3.737   0.281   0.723  1.00  0.00    -0.318 N 
ATOM      7  C   UNL     1       2.366   1.963   0.183  1.00  0.00    +0.038 A 
ATOM      8  C   UNL     1       2.429   0.607   0.436  1.00  0.00    +0.146 A 
ATOM      9  C   UNL     1       1.111   2.471  -0.117  1.00  0.00    +0.127 A 
ATOM     10  N   UNL     1       1.392  -0.245   0.409  1.00  0.00    -0.194 NA
ATOM     11  N   UNL     1       0.045   1.639  -0.156  1.00  0.00    -0.221 NA
BRANCH   4  12
ATOM     12  C   UNL     1       5.946   1.486   0.940  1.00  0.00    +0.270 C 
ATOM     13  N   UNL     1       6.763   2.159   0.030  1.00  0.00    -0.343 N 
ATOM     14  O   UNL     1       6.404   0.985   1.965  1.00  0.00    -0.267 OA
ATOM     15  C   UNL     1       8.146   2.411   0.395  1.00  0.00    +0.146 C 
ATOM     16  C   UNL     1       6.400   2.458  -1.347  1.00  0.00    +0.146 C 
ENDBRANCH   4  12
BRANCH   6  17
ATOM     17  C   UNL     1       4.210  -1.063   1.026  1.00  0.00    +0.089 C 
ATOM     18  C   UNL     1       3.553  -1.706   2.263  1.00  0.00    +0.025 C 
ATOM     19  C   UNL     1       4.029  -2.066  -0.125  1.00  0.00    +0.025 C 
ATOM     20  C   UNL     1       2.942  -3.015   1.773  1.00  0.00    +0.002 C 
ATOM     21  C   UNL     1       3.793  -3.397   0.573  1.00  0.00    +0.002 C 
ENDBRANCH   6  17
ENDBRANCH   1   3
BRANCH   1  22
ATOM     22  C   UNL     1      -2.210  -0.434  -0.176  1.00  0.00    +0.132 A 
ATOM     23  C   UNL     1      -2.854   0.751  -0.499  1.00  0.00    +0.049 A 
ATOM     24  N   UNL     1      -2.903  -1.588  -0.089  1.00  0.00    -0.237 NA
ATOM     25  C   UNL     1      -4.236   0.760  -0.729  1.00  0.00    +0.031 A 
ATOM     26  C   UNL     1      -4.242  -1.547  -0.322  1.00  0.00    +0.139 A 
ATOM     27  C   UNL     1      -4.990  -0.408  -0.630  1.00  0.00    +0.055 A 
BRANCH  27  28
ATOM     28  N   UNL     1      -6.373  -0.475  -0.856  1.00  0.00    -0.368 N 
ATOM     29  C   UNL     1      -7.044   0.719  -1.416  1.00  0.00    +0.132 C 
ATOM     30  C   UNL     1      -7.142  -1.077   0.263  1.00  0.00    +0.132 C 
ATOM     31  C   UNL     1      -8.502   0.391  -1.811  1.00  0.00    +0.102 C 
ATOM     32  C   UNL     1      -8.604  -1.349  -0.162  1.00  0.00    +0.102 C 
ATOM     33  N   UNL     1      -9.297  -0.164  -0.699  1.00  0.00    -0.313 NA
ATOM     34  H   UNL     1     -10.210  -0.445  -1.053  1.00  0.00    +0.122 HD
ENDBRANCH  27  28
ENDBRANCH   1  22
TORSDOF 5
