REMARK SMILES Cn1cnc2c(Cl)c(C(=O)NO)c(Nc3ccc(Br)cc3F)cc21
REMARK SMILES IDX 1 1 2 2 3 3 4 4 5 5 24 6 23 7 13 8 8 9 6 10 7 11 14 12 15 14
REMARK SMILES IDX 21 15 16 16 20 17 17 18 18 19 22 20 19 21 9 22 10 23 11 24
REMARK SMILES IDX 12 26
REMARK H PARENT 14 13 11 25 12 27
ROOT
ATOM      1  C   UNL     1      -2.356  -3.163   0.809  1.00  0.00    +0.151 C 
ATOM      2  N   UNL     1      -2.811  -1.810   0.509  1.00  0.00    -0.334 N 
ATOM      3  C   UNL     1      -4.078  -1.332   0.592  1.00  0.00    +0.200 A 
ATOM      4  N   UNL     1      -4.168  -0.011   0.292  1.00  0.00    -0.235 NA
ATOM      5  C   UNL     1      -2.889   0.333   0.027  1.00  0.00    +0.108 A 
ATOM      6  C   UNL     1      -2.072  -0.744   0.157  1.00  0.00    +0.071 A 
ATOM      7  C   UNL     1      -0.709  -0.676  -0.099  1.00  0.00    +0.055 A 
ATOM      8  C   UNL     1      -0.161   0.570  -0.493  1.00  0.00    +0.055 A 
ATOM      9  C   UNL     1      -1.011   1.723  -0.600  1.00  0.00    +0.086 A 
ATOM     10  C   UNL     1      -2.411   1.583  -0.359  1.00  0.00    +0.083 A 
ATOM     11 Cl   UNL     1      -3.576   2.877  -0.646  1.00  0.00    -0.081 Cl
ENDROOT
BRANCH   8  12
ATOM     12  N   UNL     1       1.227   0.633  -0.874  1.00  0.00    -0.352 N 
ATOM     13  H   UNL     1       1.427   1.018  -1.820  1.00  0.00    +0.167 HD
BRANCH  12  14
ATOM     14  C   UNL     1       2.246  -0.185  -0.275  1.00  0.00    +0.075 A 
ATOM     15  C   UNL     1       2.316  -0.364   1.122  1.00  0.00    +0.147 A 
ATOM     16  C   UNL     1       3.207  -0.801  -1.094  1.00  0.00    +0.030 A 
ATOM     17  C   UNL     1       3.307  -1.183   1.676  1.00  0.00    +0.057 A 
ATOM     18  C   UNL     1       4.196  -1.617  -0.535  1.00  0.00    +0.018 A 
ATOM     19  C   UNL     1       4.245  -1.812   0.848  1.00  0.00    +0.021 A 
ATOM     20  F   UNL     1       1.437   0.260   1.946  1.00  0.00    -0.205 F 
ATOM     21 Br   UNL     1       5.591  -2.941   1.604  1.00  0.00    -0.051 Br
ENDBRANCH  12  14
ENDBRANCH   8  12
BRANCH   9  22
ATOM     22  C   UNL     1      -0.447   3.060  -0.919  1.00  0.00    +0.278 C 
ATOM     23  O   UNL     1       0.453   3.177  -1.799  1.00  0.00    -0.267 OA
ATOM     24  N   UNL     1      -0.883   4.227  -0.207  1.00  0.00    -0.234 N 
ATOM     25  H   UNL     1      -1.484   4.138   0.644  1.00  0.00    +0.199 HD
BRANCH  24  26
ATOM     26  O   UNL     1      -0.583   5.467  -0.663  1.00  0.00    -0.288 OA
ATOM     27  H   UNL     1       0.274   5.697  -0.222  1.00  0.00    +0.246 HD
ENDBRANCH  24  26
ENDBRANCH   9  22
TORSDOF 4
