REMARK SMILES NC(=O)c1c(OCC(O)CO)cc(F)c(Nc2ccc(I)cc2F)c1Cl
REMARK SMILES IDX 6 1 5 2 4 3 25 4 15 5 12 6 13 7 26 8 14 9 2 10 1 11 3 12
REMARK SMILES IDX 16 15 17 17 18 18 23 19 19 20 22 21 20 22 24 23 21 24 7 25
REMARK SMILES IDX 8 26 9 27 10 29 11 30
REMARK H PARENT 1 13 1 14 16 16 9 28 11 31
ROOT
ATOM      1  O   UNL     1       2.563  -0.549   0.809  1.00  0.00    -0.490 OA
ENDROOT
BRANCH   1   2
ATOM      2  C   UNL     1       1.234  -0.400   0.367  1.00  0.00    +0.136 A 
ATOM      3  C   UNL     1       0.393  -1.534   0.345  1.00  0.00    +0.102 A 
ATOM      4  C   UNL     1      -0.942  -1.404  -0.103  1.00  0.00    +0.084 A 
ATOM      5  C   UNL     1      -1.424  -0.154  -0.535  1.00  0.00    +0.095 A 
ATOM      6  C   UNL     1       0.731   0.842  -0.068  1.00  0.00    +0.088 A 
ATOM      7  C   UNL     1      -0.581   0.960  -0.525  1.00  0.00    +0.151 A 
ATOM      8 Cl   UNL     1      -2.047  -2.782  -0.080  1.00  0.00    -0.081 Cl
ATOM      9  F   UNL     1      -1.033   2.162  -0.970  1.00  0.00    -0.204 F 
BRANCH   3  10
ATOM     10  C   UNL     1       0.929  -2.858   0.746  1.00  0.00    +0.254 C 
ATOM     11  N   UNL     1       1.717  -3.006   1.930  1.00  0.00    -0.365 N 
ATOM     12  O   UNL     1       0.722  -3.864   0.016  1.00  0.00    -0.269 OA
ATOM     13  H   UNL     1       2.177  -3.921   2.144  1.00  0.00    +0.159 HD
ATOM     14  H   UNL     1       1.818  -2.220   2.610  1.00  0.00    +0.159 HD
ENDBRANCH   3  10
BRANCH   5  15
ATOM     15  N   UNL     1      -2.753  -0.025  -1.053  1.00  0.00    -0.349 N 
ATOM     16  H   UNL     1      -2.885  -0.263  -2.065  1.00  0.00    +0.167 HD
BRANCH  15  17
ATOM     17  C   UNL     1      -3.918   0.153  -0.226  1.00  0.00    +0.075 A 
ATOM     18  C   UNL     1      -5.171  -0.246  -0.725  1.00  0.00    +0.030 A 
ATOM     19  C   UNL     1      -3.842   0.735   1.060  1.00  0.00    +0.147 A 
ATOM     20  C   UNL     1      -6.326  -0.088   0.045  1.00  0.00    +0.017 A 
ATOM     21  C   UNL     1      -5.005   0.903   1.819  1.00  0.00    +0.056 A 
ATOM     22  C   UNL     1      -6.246   0.497   1.311  1.00  0.00    +0.016 A 
ATOM     23  F   UNL     1      -2.662   1.169   1.575  1.00  0.00    -0.205 F 
ATOM     24  I   UNL     1      -7.993   0.777   2.456  1.00  0.00    -0.044 I 
ENDBRANCH  15  17
ENDBRANCH   5  15
ENDBRANCH   1   2
BRANCH   1  25
ATOM     25  C   UNL     1       3.531   0.493   0.933  1.00  0.00    +0.263 C 
BRANCH  25  26
ATOM     26  C   UNL     1       4.186   0.793  -0.425  1.00  0.00    +0.177 C 
BRANCH  26  27
ATOM     27  O   UNL     1       4.856  -0.354  -0.878  1.00  0.00    -0.387 OA
ATOM     28  H   UNL     1       4.797  -0.356  -1.868  1.00  0.00    +0.211 HD
ENDBRANCH  26  27
BRANCH  26  29
ATOM     29  C   UNL     1       5.173   1.967  -0.312  1.00  0.00    +0.191 C 
BRANCH  29  30
ATOM     30  O   UNL     1       6.214   1.666   0.581  1.00  0.00    -0.394 OA
ATOM     31  H   UNL     1       6.927   1.214   0.064  1.00  0.00    +0.210 HD
ENDBRANCH  29  30
ENDBRANCH  26  29
ENDBRANCH  25  26
ENDBRANCH   1  25
TORSDOF 9
