REMARK SMILES Cn1cnc2c(F)c(Nc3ccc(Br)cc3Cl)c(C(=O)NOCCO)cc21
REMARK SMILES IDX 19 1 20 2 21 3 18 5 2 6 3 7 27 8 4 9 26 10 5 11 6 12 8 13
REMARK SMILES IDX 1 14 7 15 9 16 10 18 11 19 16 20 12 21 15 22 13 23 17 24
REMARK SMILES IDX 14 25 22 26 23 27 24 28 25 29
REMARK H PARENT 21 4 9 17 25 30
ROOT
ATOM      1  C   UNL     1       1.699   0.229   0.177  1.00  0.00    +0.277 C 
ATOM      2  O   UNL     1       1.925  -0.750   0.883  1.00  0.00    -0.267 OA
ATOM      3  N   UNL     1       2.584   0.756  -0.741  1.00  0.00    -0.231 N 
ATOM      4  H   UNL     1       2.466   1.684  -1.126  1.00  0.00    +0.199 HD
ENDROOT
BRANCH   1   5
ATOM      5  C   UNL     1       0.384   0.914   0.266  1.00  0.00    +0.070 A 
ATOM      6  N   UNL     1      -1.265   4.247   0.643  1.00  0.00    -0.334 N 
ATOM      7  C   UNL     1      -2.629   4.284   0.659  1.00  0.00    +0.200 A 
ATOM      8  C   UNL     1      -0.873   2.938   0.492  1.00  0.00    +0.072 A 
ATOM      9  N   UNL     1      -3.144   3.083   0.536  1.00  0.00    -0.234 NA
ATOM     10  C   UNL     1       0.377   2.318   0.413  1.00  0.00    +0.045 A 
ATOM     11  C   UNL     1      -2.070   2.226   0.439  1.00  0.00    +0.126 A 
ATOM     12  C   UNL     1      -2.030   0.823   0.312  1.00  0.00    +0.175 A 
ATOM     13  C   UNL     1      -0.801   0.139   0.231  1.00  0.00    +0.090 A 
ATOM     14  C   UNL     1      -0.396   5.389   0.772  1.00  0.00    +0.151 C 
ATOM     15  F   UNL     1      -3.189   0.145   0.323  1.00  0.00    -0.202 F 
BRANCH  13  16
ATOM     16  N   UNL     1      -0.705  -1.264   0.054  1.00  0.00    -0.351 N 
ATOM     17  H   UNL     1       0.100  -1.673   0.542  1.00  0.00    +0.167 HD
BRANCH  16  18
ATOM     18  C   UNL     1      -1.582  -2.239  -0.463  1.00  0.00    +0.057 A 
ATOM     19  C   UNL     1      -2.557  -1.932  -1.421  1.00  0.00    +0.029 A 
ATOM     20  C   UNL     1      -1.503  -3.575  -0.015  1.00  0.00    +0.065 A 
ATOM     21  C   UNL     1      -3.424  -2.915  -1.912  1.00  0.00    +0.018 A 
ATOM     22  C   UNL     1      -2.364  -4.562  -0.501  1.00  0.00    +0.038 A 
ATOM     23  C   UNL     1      -3.323  -4.223  -1.448  1.00  0.00    +0.019 A 
ATOM     24 Cl   UNL     1      -0.324  -4.039   1.167  1.00  0.00    -0.082 Cl
ATOM     25 Br   UNL     1      -4.495  -5.548  -2.115  1.00  0.00    -0.051 Br
ENDBRANCH  16  18
ENDBRANCH  13  16
ENDBRANCH   1   5
BRANCH   3  26
ATOM     26  O   UNL     1       3.925   0.342  -0.552  1.00  0.00    -0.271 OA
BRANCH  26  27
ATOM     27  C   UNL     1       4.247  -0.687  -1.501  1.00  0.00    +0.222 C 
BRANCH  27  28
ATOM     28  C   UNL     1       4.717  -1.929  -0.749  1.00  0.00    +0.187 C 
BRANCH  28  29
ATOM     29  O   UNL     1       3.614  -2.633  -0.185  1.00  0.00    -0.394 OA
ATOM     30  H   UNL     1       3.109  -1.988   0.359  1.00  0.00    +0.210 HD
ENDBRANCH  28  29
ENDBRANCH  27  28
ENDBRANCH  26  27
ENDBRANCH   3  26
TORSDOF 7
