REMARK SMILES CNC(=O)c1cc(Oc2ccc(NC(=O)Nc3ccc(Cl)c(C(F)(F)F)c3)cc2)ccn1
REMARK SMILES IDX 9 1 10 2 11 3 12 4 28 5 29 6 8 7 7 8 5 9 6 10 32 11 31 12
REMARK SMILES IDX 30 13 3 14 2 15 4 16 1 17 13 19 14 20 15 21 16 22 17 25
REMARK SMILES IDX 18 26 27 27 19 28 22 29 20 30 21 31 23 32 24 33 25 34 26 35
REMARK H PARENT 2 18 13 23 16 24
ROOT
ATOM      1  C   UNL     1       1.643   0.251   0.378  1.00  0.00    +0.127 A 
ATOM      2  C   UNL     1       1.367  -0.190  -0.923  1.00  0.00    +0.049 A 
ATOM      3  C   UNL     1       0.084  -0.058  -1.459  1.00  0.00    +0.030 A 
ATOM      4  C   UNL     1      -0.956   0.470  -0.683  1.00  0.00    +0.043 A 
ATOM      5  C   UNL     1      -0.694   0.867   0.638  1.00  0.00    +0.030 A 
ATOM      6  C   UNL     1       0.595   0.747   1.166  1.00  0.00    +0.049 A 
ENDROOT
BRANCH   1   7
ATOM      7  O   UNL     1       2.933   0.181   0.923  1.00  0.00    -0.457 OA
BRANCH   7   8
ATOM      8  C   UNL     1       4.134   0.311   0.210  1.00  0.00    +0.131 A 
ATOM      9  C   UNL     1       6.518  -0.143   0.048  1.00  0.00    +0.131 A 
ATOM     10  C   UNL     1       5.293  -0.281   0.731  1.00  0.00    +0.081 A 
ATOM     11  N   UNL     1       6.560   0.571  -1.110  1.00  0.00    -0.251 NA
ATOM     12  C   UNL     1       5.453   1.158  -1.635  1.00  0.00    +0.116 A 
ATOM     13  C   UNL     1       4.223   1.061  -0.975  1.00  0.00    +0.067 A 
BRANCH   9  14
ATOM     14  C   UNL     1       7.767  -0.728   0.585  1.00  0.00    +0.269 C 
ATOM     15  N   UNL     1       9.037  -0.373   0.021  1.00  0.00    -0.354 N 
ATOM     16  O   UNL     1       7.717  -1.533   1.555  1.00  0.00    -0.268 OA
ATOM     17  C   UNL     1      10.285  -0.898   0.556  1.00  0.00    +0.143 C 
ATOM     18  H   UNL     1       9.078   0.301  -0.777  1.00  0.00    +0.163 HD
ENDBRANCH   9  14
ENDBRANCH   7   8
ENDBRANCH   1   7
BRANCH   4  19
ATOM     19  N   UNL     1      -2.255   0.641  -1.266  1.00  0.00    -0.308 N 
ATOM     20  C   UNL     1      -3.487   0.338  -0.600  1.00  0.00    +0.323 C 
ATOM     21  O   UNL     1      -3.483  -0.085   0.587  1.00  0.00    -0.248 OA
ATOM     22  N   UNL     1      -4.718   0.440  -1.333  1.00  0.00    -0.308 N 
ATOM     23  H   UNL     1      -2.298   0.823  -2.291  1.00  0.00    +0.171 HD
ATOM     24  H   UNL     1      -4.662   0.709  -2.340  1.00  0.00    +0.171 HD
BRANCH  22  25
ATOM     25  C   UNL     1      -5.974  -0.049  -0.837  1.00  0.00    +0.043 A 
ATOM     26  C   UNL     1      -6.749  -0.896  -1.640  1.00  0.00    +0.028 A 
ATOM     27  C   UNL     1      -6.462   0.351   0.416  1.00  0.00    +0.040 A 
ATOM     28  C   UNL     1      -7.963  -1.393  -1.166  1.00  0.00    +0.023 A 
ATOM     29  C   UNL     1      -7.698  -0.122   0.898  1.00  0.00    +0.076 A 
ATOM     30  C   UNL     1      -8.438  -1.028   0.100  1.00  0.00    +0.053 A 
ATOM     31 Cl   UNL     1      -9.976  -1.709   0.639  1.00  0.00    -0.084 Cl
BRANCH  29  32
ATOM     32  C   UNL     1      -8.220   0.332   2.244  1.00  0.00    +0.417 C 
ATOM     33  F   UNL     1      -8.242  -0.744   3.112  1.00  0.00    -0.166 F 
ATOM     34  F   UNL     1      -7.431   1.330   2.795  1.00  0.00    -0.166 F 
ATOM     35  F   UNL     1      -9.501   0.832   2.103  1.00  0.00    -0.166 F 
ENDBRANCH  29  32
ENDBRANCH  22  25
ENDBRANCH   4  19
TORSDOF 6
