REMARK SMILES CNC(=O)c1cc(Oc2ccc(NC(=O)Nc3ccc(Cl)c(C(F)(F)F)c3)cc2)ccn1
REMARK SMILES IDX 9 1 10 2 11 3 12 4 28 5 29 6 8 7 7 8 5 9 6 10 32 11 31 12
REMARK SMILES IDX 30 13 3 14 2 15 4 16 1 17 13 19 14 20 15 21 16 22 17 25
REMARK SMILES IDX 18 26 27 27 19 28 22 29 20 30 21 31 23 32 24 33 25 34 26 35
REMARK H PARENT 2 18 13 23 16 24
ROOT
ATOM      1  C   UNL     1       1.843  -0.737  -1.055  1.00  0.00    +0.127 A 
ATOM      2  C   UNL     1       1.519   0.618  -1.115  1.00  0.00    +0.049 A 
ATOM      3  C   UNL     1       0.185   1.017  -0.995  1.00  0.00    +0.030 A 
ATOM      4  C   UNL     1      -0.833   0.068  -0.822  1.00  0.00    +0.043 A 
ATOM      5  C   UNL     1      -0.497  -1.288  -0.796  1.00  0.00    +0.030 A 
ATOM      6  C   UNL     1       0.837  -1.691  -0.919  1.00  0.00    +0.049 A 
ENDROOT
BRANCH   1   7
ATOM      7  O   UNL     1       3.133  -1.189  -1.199  1.00  0.00    -0.457 OA
BRANCH   7   8
ATOM      8  C   UNL     1       4.077  -0.654  -0.352  1.00  0.00    +0.131 A 
ATOM      9  C   UNL     1       6.258   0.230  -0.063  1.00  0.00    +0.131 A 
ATOM     10  C   UNL     1       5.291  -0.282  -0.913  1.00  0.00    +0.081 A 
ATOM     11  N   UNL     1       6.093   0.372   1.285  1.00  0.00    -0.251 NA
ATOM     12  C   UNL     1       4.906  -0.026   1.790  1.00  0.00    +0.116 A 
ATOM     13  C   UNL     1       3.878  -0.544   1.023  1.00  0.00    +0.067 A 
BRANCH   9  14
ATOM     14  C   UNL     1       7.583   0.662  -0.617  1.00  0.00    +0.269 C 
ATOM     15  N   UNL     1       8.451   1.170   0.325  1.00  0.00    -0.354 N 
ATOM     16  O   UNL     1       7.845   0.554  -1.809  1.00  0.00    -0.268 OA
ATOM     17  C   UNL     1       9.812   1.512   0.014  1.00  0.00    +0.143 C 
ATOM     18  H   UNL     1       8.144   1.107   1.293  1.00  0.00    +0.163 HD
ENDBRANCH   9  14
ENDBRANCH   7   8
ENDBRANCH   1   7
BRANCH   4  19
ATOM     19  N   UNL     1      -2.154   0.551  -0.718  1.00  0.00    -0.308 N 
ATOM     20  C   UNL     1      -3.284  -0.167  -0.352  1.00  0.00    +0.323 C 
ATOM     21  O   UNL     1      -3.284  -1.322   0.051  1.00  0.00    -0.248 OA
ATOM     22  N   UNL     1      -4.418   0.618  -0.510  1.00  0.00    -0.308 N 
ATOM     23  H   UNL     1      -2.261   1.553  -0.745  1.00  0.00    +0.171 HD
ATOM     24  H   UNL     1      -4.309   1.419  -1.114  1.00  0.00    +0.171 HD
BRANCH  22  25
ATOM     25  C   UNL     1      -5.738   0.297  -0.134  1.00  0.00    +0.043 A 
ATOM     26  C   UNL     1      -6.756   1.139  -0.590  1.00  0.00    +0.028 A 
ATOM     27  C   UNL     1      -6.076  -0.789   0.679  1.00  0.00    +0.040 A 
ATOM     28  C   UNL     1      -8.088   0.889  -0.252  1.00  0.00    +0.023 A 
ATOM     29  C   UNL     1      -7.417  -1.055   1.031  1.00  0.00    +0.076 A 
ATOM     30  C   UNL     1      -8.418  -0.204   0.553  1.00  0.00    +0.053 A 
ATOM     31 Cl   UNL     1     -10.086  -0.442   0.924  1.00  0.00    -0.084 Cl
BRANCH  29  32
ATOM     32  C   UNL     1      -7.744  -2.234   1.908  1.00  0.00    +0.417 C 
ATOM     33  F   UNL     1      -6.645  -2.946   2.291  1.00  0.00    -0.166 F 
ATOM     34  F   UNL     1      -8.564  -3.137   1.302  1.00  0.00    -0.166 F 
ATOM     35  F   UNL     1      -8.359  -1.876   3.069  1.00  0.00    -0.166 F 
ENDBRANCH  29  32
ENDBRANCH  22  25
ENDBRANCH   4  19
TORSDOF 6
