REMARK SMILES Cn1nnc2c(C(N)=O)ncn2c1=O
REMARK SMILES IDX 1 1 2 2 3 3 4 4 5 5 6 6 10 7 11 8 12 9 13 10 14 11 7 12 8 13
REMARK SMILES IDX 9 14
REMARK H PARENT 8 15 8 16
ROOT
ATOM      1  C   UNL     1      -3.665  -0.422  -0.238  1.00  0.00    +0.181 C 
ATOM      2  N   UNL     1      -2.241  -0.194  -0.104  1.00  0.00    -0.199 N 
ATOM      3  N   UNL     1      -1.875   1.121   0.083  1.00  0.00    -0.061 NA
ATOM      4  N   UNL     1      -0.667   1.428   0.210  1.00  0.00    -0.111 NA
ATOM      5  C   UNL     1       0.291   0.480   0.166  1.00  0.00    +0.198 A 
ATOM      6  C   UNL     1       1.671   0.476   0.269  1.00  0.00    +0.174 A 
ATOM      7  N   UNL     1       2.160  -0.824   0.147  1.00  0.00    -0.229 NA
ATOM      8  C   UNL     1       1.092  -1.572  -0.023  1.00  0.00    +0.211 A 
ATOM      9  N   UNL     1      -0.057  -0.827  -0.019  1.00  0.00    -0.231 N 
ATOM     10  C   UNL     1      -1.360  -1.257  -0.168  1.00  0.00    +0.352 C 
ATOM     11  O   UNL     1      -1.593  -2.446  -0.330  1.00  0.00    -0.245 OA
ENDROOT
BRANCH   6  12
ATOM     12  C   UNL     1       2.539   1.629   0.474  1.00  0.00    +0.271 C 
ATOM     13  N   UNL     1       3.865   1.306   0.534  1.00  0.00    -0.364 N 
ATOM     14  O   UNL     1       2.152   2.786   0.586  1.00  0.00    -0.268 OA
ATOM     15  H   UNL     1       4.547   2.036   0.673  1.00  0.00    +0.160 HD
ATOM     16  H   UNL     1       4.149   0.339   0.437  1.00  0.00    +0.160 HD
ENDBRANCH   6  12
TORSDOF 1
