REMARK SMILES Cn1c(=O)[nH]c2nnnc(C(N)=O)c21
REMARK SMILES IDX 10 1 9 2 8 3 7 4 6 5 14 6 2 7 1 8 3 9 4 10 5 11 11 13 12 14
REMARK SMILES IDX 13 15
REMARK H PARENT 5 12 12 16 12 17
ROOT
ATOM      1  C   UNL     1      -1.172   0.412   0.072  1.00  0.00    +0.179 A 
ATOM      2  N   UNL     1      -1.941   1.501  -0.228  1.00  0.00    -0.122 NA
ATOM      3  N   UNL     1      -1.400   2.684  -0.553  1.00  0.00    -0.042 NA
ATOM      4  N   UNL     1      -0.076   2.859  -0.598  1.00  0.00    -0.110 NA
ATOM      5  C   UNL     1       0.721   1.808  -0.312  1.00  0.00    +0.185 A 
ATOM      6  C   UNL     1       0.219   0.584   0.006  1.00  0.00    +0.124 A 
ATOM      7  N   UNL     1       1.254  -0.283   0.127  1.00  0.00    -0.291 N 
ATOM      8  C   UNL     1       1.244  -1.725   0.363  1.00  0.00    +0.155 C 
ATOM      9  C   UNL     1       2.352   0.488  -0.095  1.00  0.00    +0.327 A 
ATOM     10  O   UNL     1       3.532   0.045  -0.069  1.00  0.00    -0.248 OA
ATOM     11  N   UNL     1       2.060   1.780  -0.370  1.00  0.00    -0.289 N 
ATOM     12  H   UNL     1       2.715   2.559  -0.605  1.00  0.00    +0.173 HD
ENDROOT
BRANCH   1  13
ATOM     13  C   UNL     1      -1.843  -0.830   0.493  1.00  0.00    +0.271 C 
ATOM     14  N   UNL     1      -3.041  -1.252  -0.159  1.00  0.00    -0.364 N 
ATOM     15  O   UNL     1      -1.412  -1.485   1.477  1.00  0.00    -0.268 OA
ATOM     16  H   UNL     1      -3.540  -2.111   0.163  1.00  0.00    +0.160 HD
ATOM     17  H   UNL     1      -3.424  -0.721  -0.972  1.00  0.00    +0.160 HD
ENDBRANCH   1  13
TORSDOF 1
