REMARK SMILES Cn1nnc2c(C(N)=O)ncn2c1=O
REMARK SMILES IDX 1 1 2 2 13 3 14 4 12 5 11 6 10 7 6 8 5 9 4 10 3 11 7 12 9 13
REMARK SMILES IDX 8 14
REMARK H PARENT 8 15 8 16
ROOT
ATOM      1  C   UNL     1      -3.488   0.484  -0.346  1.00  0.00    +0.181 C 
ATOM      2  N   UNL     1      -2.047   0.286  -0.208  1.00  0.00    -0.199 N 
ATOM      3  C   UNL     1      -1.541  -0.718   0.576  1.00  0.00    +0.352 A 
ATOM      4  O   UNL     1      -2.301  -1.504   1.207  1.00  0.00    -0.245 OA
ATOM      5  N   UNL     1      -0.198  -0.841   0.657  1.00  0.00    -0.231 N 
ATOM      6  C   UNL     1       0.595  -1.684   1.342  1.00  0.00    +0.211 A 
ATOM      7  N   UNL     1       1.908  -1.414   1.136  1.00  0.00    -0.229 NA
ATOM      8  C   UNL     1       1.923  -0.361   0.280  1.00  0.00    +0.174 A 
ATOM      9  C   UNL     1       0.615  -0.022   0.000  1.00  0.00    +0.198 A 
ATOM     10  N   UNL     1       0.121   0.977  -0.762  1.00  0.00    -0.111 NA
ATOM     11  N   UNL     1      -1.207   1.111  -0.854  1.00  0.00    -0.061 NA
ENDROOT
BRANCH   8  12
ATOM     12  C   UNL     1       3.167   0.273  -0.200  1.00  0.00    +0.271 C 
ATOM     13  O   UNL     1       4.260  -0.041   0.343  1.00  0.00    -0.268 OA
ATOM     14  N   UNL     1       3.171   1.219  -1.271  1.00  0.00    -0.364 N 
ATOM     15  H   UNL     1       2.321   1.414  -1.841  1.00  0.00    +0.160 HD
ATOM     16  H   UNL     1       4.063   1.684  -1.549  1.00  0.00    +0.160 HD
ENDBRANCH   8  12
TORSDOF 1
