REMARK SMILES CC(=O)Nc1cccc(-n2c(=O)n(C3CC3)c(=O)c3c(Nc4ccc(I)cc4F)n(C)c(=O)c(C)c32)c1
REMARK SMILES IDX 10 1 11 2 12 3 13 4 17 5 18 6 19 7 20 8 30 9 31 10 32 11
REMARK SMILES IDX 33 12 34 13 35 14 36 15 9 16 5 17 6 18 37 19 7 20 8 21 4 22
REMARK SMILES IDX 2 23 3 24 1 25 14 27 15 28 16 29 21 30 22 32 23 33 28 34
REMARK SMILES IDX 24 35 27 36 25 37 29 38 26 39
REMARK H PARENT 4 26 21 31
ROOT
ATOM      1  N   UNL     1      -1.267  -1.146  -0.333  1.00  0.00    -0.261 N 
ATOM      2  C   UNL     1      -0.706  -2.449  -0.271  1.00  0.00    +0.336 C 
ATOM      3  O   UNL     1      -1.375  -3.488  -0.305  1.00  0.00    -0.247 OA
ATOM      4  N   UNL     1       0.677  -2.514  -0.102  1.00  0.00    -0.256 N 
ATOM      5  C   UNL     1       1.315  -1.536   0.633  1.00  0.00    +0.268 C 
ATOM      6  O   UNL     1       2.212  -1.757   1.449  1.00  0.00    -0.268 OA
ATOM      7  C   UNL     1       0.848  -0.156   0.344  1.00  0.00    +0.106 C 
ATOM      8  C   UNL     1       1.680   0.889   0.593  1.00  0.00    +0.128 C 
ATOM      9  N   UNL     1       1.237   2.165   0.228  1.00  0.00    -0.297 N 
ATOM     10  C   UNL     1       2.035   3.336   0.574  1.00  0.00    +0.155 C 
ATOM     11  C   UNL     1       0.091   2.388  -0.521  1.00  0.00    +0.256 C 
ATOM     12  O   UNL     1      -0.236   3.497  -0.944  1.00  0.00    -0.269 OA
ATOM     13  C   UNL     1      -0.785   1.204  -0.803  1.00  0.00    +0.040 C 
ATOM     14  C   UNL     1      -1.937   1.526  -1.717  1.00  0.00    +0.053 C 
ATOM     15  C   UNL     1      -0.453   0.003  -0.277  1.00  0.00    +0.076 C 
ENDROOT
BRANCH   1  16
ATOM     16  C   UNL     1      -2.713  -1.064  -0.251  1.00  0.00    +0.053 A 
ATOM     17  C   UNL     1      -4.708  -0.041   0.730  1.00  0.00    +0.043 A 
ATOM     18  C   UNL     1      -5.507  -0.872  -0.061  1.00  0.00    +0.026 A 
ATOM     19  C   UNL     1      -3.317  -0.147   0.631  1.00  0.00    +0.053 A 
ATOM     20  C   UNL     1      -4.926  -1.796  -0.930  1.00  0.00    +0.004 A 
ATOM     21  C   UNL     1      -3.538  -1.893  -1.022  1.00  0.00    +0.027 A 
BRANCH  17  22
ATOM     22  N   UNL     1      -5.371   0.862   1.588  1.00  0.00    -0.326 N 
ATOM     23  C   UNL     1      -4.798   1.764   2.466  1.00  0.00    +0.221 C 
ATOM     24  O   UNL     1      -3.602   1.925   2.682  1.00  0.00    -0.275 OA
ATOM     25  C   UNL     1      -5.832   2.569   3.215  1.00  0.00    +0.114 C 
ATOM     26  H   UNL     1      -6.383   0.837   1.560  1.00  0.00    +0.169 HD
ENDBRANCH  17  22
ENDBRANCH   1  16
BRANCH   4  27
ATOM     27  C   UNL     1       1.283  -3.835  -0.103  1.00  0.00    +0.096 C 
ATOM     28  C   UNL     1       2.633  -4.075  -0.737  1.00  0.00    +0.028 C 
ATOM     29  C   UNL     1       1.401  -4.637  -1.376  1.00  0.00    +0.028 C 
ENDBRANCH   4  27
BRANCH   8  30
ATOM     30  N   UNL     1       2.939   0.733   1.195  1.00  0.00    -0.338 N 
ATOM     31  H   UNL     1       3.005  -0.200   1.633  1.00  0.00    +0.168 HD
BRANCH  30  32
ATOM     32  C   UNL     1       4.160   0.906   0.474  1.00  0.00    +0.076 A 
ATOM     33  C   UNL     1       5.334   1.073   1.223  1.00  0.00    +0.030 A 
ATOM     34  C   UNL     1       4.273   0.834  -0.925  1.00  0.00    +0.147 A 
ATOM     35  C   UNL     1       6.574   1.210   0.591  1.00  0.00    +0.017 A 
ATOM     36  C   UNL     1       5.504   0.969  -1.563  1.00  0.00    +0.056 A 
ATOM     37  C   UNL     1       6.653   1.162  -0.801  1.00  0.00    +0.016 A 
ATOM     38  F   UNL     1       3.195   0.604  -1.691  1.00  0.00    -0.205 F 
ATOM     39  I   UNL     1       8.494   1.363  -1.740  1.00  0.00    -0.044 I 
ENDBRANCH  30  32
ENDBRANCH   8  30
TORSDOF 5
