REMARK SMILES CC(=O)Nc1ccc(-n2c(C)c(Nc3ccc(I)cc3F)c(=O)n(C)c2=O)c(F)c1
REMARK SMILES IDX 11 1 10 2 12 3 22 4 23 5 24 6 25 7 26 8 27 9 9 10 13 11
REMARK SMILES IDX 14 13 15 14 20 15 16 16 19 17 17 18 21 19 18 20 8 21 7 22
REMARK SMILES IDX 28 23 6 24 30 25 5 26 29 27 4 28 2 29 3 30 1 32
REMARK H PARENT 13 12 4 31
ROOT
ATOM      1  C   UNL     1       0.731   1.416  -0.427  1.00  0.00    +0.067 C 
ATOM      2  C   UNL     1       0.938  -0.071  -0.623  1.00  0.00    +0.054 A 
ATOM      3  C   UNL     1       2.195  -0.521  -1.054  1.00  0.00    +0.125 A 
ATOM      4  C   UNL     1       2.390  -1.885  -1.272  1.00  0.00    +0.279 A 
ATOM      5  O   UNL     1       3.507  -2.284  -1.702  1.00  0.00    -0.267 OA
ATOM      6  N   UNL     1       1.389  -2.778  -1.003  1.00  0.00    -0.261 N 
ATOM      7  C   UNL     1       1.609  -4.218  -1.238  1.00  0.00    +0.159 C 
ATOM      8  C   UNL     1       0.162  -2.327  -0.591  1.00  0.00    +0.335 A 
ATOM      9  O   UNL     1      -0.776  -3.153  -0.392  1.00  0.00    -0.247 OA
ATOM     10  N   UNL     1      -0.064  -0.986  -0.400  1.00  0.00    -0.261 N 
ENDROOT
BRANCH   3  11
ATOM     11  N   UNL     1       3.253   0.407  -1.331  1.00  0.00    -0.347 N 
ATOM     12  H   UNL     1       3.255   0.846  -2.281  1.00  0.00    +0.167 HD
BRANCH  11  13
ATOM     13  C   UNL     1       4.079   0.981  -0.302  1.00  0.00    +0.075 A 
ATOM     14  C   UNL     1       4.627   2.262  -0.504  1.00  0.00    +0.030 A 
ATOM     15  C   UNL     1       4.381   0.288   0.891  1.00  0.00    +0.147 A 
ATOM     16  C   UNL     1       5.442   2.847   0.468  1.00  0.00    +0.017 A 
ATOM     17  C   UNL     1       5.207   0.877   1.855  1.00  0.00    +0.056 A 
ATOM     18  C   UNL     1       5.732   2.156   1.648  1.00  0.00    +0.016 A 
ATOM     19  F   UNL     1       3.913  -0.966   1.109  1.00  0.00    -0.205 F 
ATOM     20  I   UNL     1       6.976   3.031   3.110  1.00  0.00    -0.044 I 
ENDBRANCH  11  13
ENDBRANCH   3  11
BRANCH  10  21
ATOM     21  C   UNL     1      -1.376  -0.562   0.016  1.00  0.00    +0.086 A 
ATOM     22  C   UNL     1      -2.394  -0.417  -0.936  1.00  0.00    +0.032 A 
ATOM     23  C   UNL     1      -1.639  -0.278   1.362  1.00  0.00    +0.149 A 
ATOM     24  C   UNL     1      -3.664   0.016  -0.547  1.00  0.00    +0.028 A 
ATOM     25  C   UNL     1      -2.912   0.153   1.751  1.00  0.00    +0.067 A 
ATOM     26  C   UNL     1      -3.940   0.287   0.806  1.00  0.00    +0.044 A 
ATOM     27  F   UNL     1      -0.660  -0.409   2.293  1.00  0.00    -0.205 F 
BRANCH  26  28
ATOM     28  N   UNL     1      -5.236   0.745   1.231  1.00  0.00    -0.326 N 
ATOM     29  C   UNL     1      -6.481   0.377   0.610  1.00  0.00    +0.221 C 
ATOM     30  O   UNL     1      -6.537  -0.566  -0.225  1.00  0.00    -0.275 OA
ATOM     31  H   UNL     1      -5.287   1.332   2.089  1.00  0.00    +0.169 HD
ATOM     32  C   UNL     1      -7.737   1.086   0.996  1.00  0.00    +0.114 C 
ENDBRANCH  26  28
ENDBRANCH  10  21
TORSDOF 4
