REMARK SMILES CC(=O)Nc1cccc(-n2c(=O)n(C3CC3)c(=O)c3c(Nc4ccc(I)cc4F)n(C)c(=O)c(C)c32)c1
REMARK SMILES IDX 10 1 11 2 12 3 13 4 17 5 18 6 19 7 20 8 30 9 31 10 32 11
REMARK SMILES IDX 33 12 34 13 35 14 36 15 9 16 5 17 6 18 37 19 7 20 8 21 4 22
REMARK SMILES IDX 2 23 3 24 1 25 14 27 15 28 16 29 21 30 22 32 23 33 28 34
REMARK SMILES IDX 24 35 27 36 25 37 29 38 26 39
REMARK H PARENT 4 26 21 31
ROOT
ATOM      1  N   UNL     1       1.324  -0.764   0.813  1.00  0.00    -0.261 N 
ATOM      2  C   UNL     1       0.957  -2.130   0.958  1.00  0.00    +0.336 C 
ATOM      3  O   UNL     1       1.740  -3.018   1.310  1.00  0.00    -0.247 OA
ATOM      4  N   UNL     1      -0.357  -2.452   0.614  1.00  0.00    -0.256 N 
ATOM      5  C   UNL     1      -0.977  -1.747  -0.397  1.00  0.00    +0.268 C 
ATOM      6  O   UNL     1      -1.652  -2.259  -1.290  1.00  0.00    -0.268 OA
ATOM      7  C   UNL     1      -0.777  -0.278  -0.312  1.00  0.00    +0.106 C 
ATOM      8  C   UNL     1      -1.711   0.547  -0.849  1.00  0.00    +0.128 C 
ATOM      9  N   UNL     1      -1.502   1.923  -0.724  1.00  0.00    -0.297 N 
ATOM     10  C   UNL     1      -2.368   2.856  -1.439  1.00  0.00    +0.155 C 
ATOM     11  C   UNL     1      -0.510   2.473   0.074  1.00  0.00    +0.256 C 
ATOM     12  O   UNL     1      -0.405   3.682   0.281  1.00  0.00    -0.269 OA
ATOM     13  C   UNL     1       0.468   1.525   0.702  1.00  0.00    +0.040 C 
ATOM     14  C   UNL     1       1.417   2.205   1.653  1.00  0.00    +0.053 C 
ATOM     15  C   UNL     1       0.384   0.207   0.409  1.00  0.00    +0.076 C 
ENDROOT
BRANCH   1  16
ATOM     16  C   UNL     1       2.741  -0.469   0.900  1.00  0.00    +0.053 A 
ATOM     17  C   UNL     1       4.713   0.654  -0.016  1.00  0.00    +0.043 A 
ATOM     18  C   UNL     1       5.481   0.127   1.028  1.00  0.00    +0.026 A 
ATOM     19  C   UNL     1       3.351   0.347  -0.074  1.00  0.00    +0.053 A 
ATOM     20  C   UNL     1       4.898  -0.692   1.993  1.00  0.00    +0.004 A 
ATOM     21  C   UNL     1       3.536  -0.989   1.929  1.00  0.00    +0.027 A 
BRANCH  17  22
ATOM     22  N   UNL     1       5.378   1.469  -0.957  1.00  0.00    -0.326 N 
ATOM     23  C   UNL     1       4.826   2.116  -2.048  1.00  0.00    +0.221 C 
ATOM     24  O   UNL     1       3.648   2.115  -2.386  1.00  0.00    -0.275 OA
ATOM     25  C   UNL     1       5.851   2.904  -2.825  1.00  0.00    +0.114 C 
ATOM     26  H   UNL     1       6.369   1.604  -0.803  1.00  0.00    +0.169 HD
ENDBRANCH  17  22
ENDBRANCH   1  16
BRANCH   4  27
ATOM     27  C   UNL     1      -0.768  -3.835   0.794  1.00  0.00    +0.096 C 
ATOM     28  C   UNL     1      -1.008  -4.402   2.172  1.00  0.00    +0.028 C 
ATOM     29  C   UNL     1      -2.166  -4.182   1.248  1.00  0.00    +0.028 C 
ENDBRANCH   4  27
BRANCH   8  30
ATOM     30  N   UNL     1      -2.842   0.072  -1.521  1.00  0.00    -0.338 N 
ATOM     31  H   UNL     1      -2.669  -0.860  -1.934  1.00  0.00    +0.168 HD
BRANCH  30  32
ATOM     32  C   UNL     1      -4.141   0.004  -0.931  1.00  0.00    +0.076 A 
ATOM     33  C   UNL     1      -4.492   0.671   0.249  1.00  0.00    +0.030 A 
ATOM     34  C   UNL     1      -5.153  -0.697  -1.610  1.00  0.00    +0.147 A 
ATOM     35  C   UNL     1      -5.800   0.607   0.746  1.00  0.00    +0.017 A 
ATOM     36  C   UNL     1      -6.456  -0.770  -1.128  1.00  0.00    +0.056 A 
ATOM     37  C   UNL     1      -6.775  -0.115   0.057  1.00  0.00    +0.016 A 
ATOM     38  F   UNL     1      -4.858  -1.331  -2.757  1.00  0.00    -0.205 F 
ATOM     39  I   UNL     1      -8.712  -0.206   0.800  1.00  0.00    -0.044 I 
ENDBRANCH  30  32
ENDBRANCH   8  30
TORSDOF 5
