REMARK SMILES CC(=O)Nc1cccc(-n2c(=O)n(C3CC3)c(=O)c3c(Nc4ccc(I)cc4F)n(C)c(=O)c(C)c32)c1
REMARK SMILES IDX 10 1 11 2 12 3 13 4 17 5 18 6 19 7 20 8 30 9 31 10 32 11
REMARK SMILES IDX 33 12 34 13 35 14 36 15 9 16 5 17 6 18 37 19 7 20 8 21 4 22
REMARK SMILES IDX 2 23 3 24 1 25 14 27 15 28 16 29 21 30 22 32 23 33 28 34
REMARK SMILES IDX 24 35 27 36 25 37 29 38 26 39
REMARK H PARENT 4 26 21 31
ROOT
ATOM      1  N   UNL     1       0.869  -1.799   0.375  1.00  0.00    -0.261 N 
ATOM      2  C   UNL     1       0.342  -2.172   1.636  1.00  0.00    +0.336 C 
ATOM      3  O   UNL     1       1.043  -2.613   2.555  1.00  0.00    -0.247 OA
ATOM      4  N   UNL     1      -1.032  -2.006   1.828  1.00  0.00    -0.256 N 
ATOM      5  C   UNL     1      -1.918  -1.579   0.860  1.00  0.00    +0.268 C 
ATOM      6  O   UNL     1      -3.143  -1.671   0.976  1.00  0.00    -0.268 OA
ATOM      7  C   UNL     1      -1.317  -1.040  -0.386  1.00  0.00    +0.106 C 
ATOM      8  C   UNL     1      -2.095  -0.308  -1.225  1.00  0.00    +0.128 C 
ATOM      9  N   UNL     1      -1.601  -0.049  -2.507  1.00  0.00    -0.297 N 
ATOM     10  C   UNL     1      -2.470   0.613  -3.480  1.00  0.00    +0.155 C 
ATOM     11  C   UNL     1      -0.409  -0.582  -2.979  1.00  0.00    +0.256 C 
ATOM     12  O   UNL     1      -0.038  -0.486  -4.148  1.00  0.00    -0.269 OA
ATOM     13  C   UNL     1       0.465  -1.287  -1.983  1.00  0.00    +0.040 C 
ATOM     14  C   UNL     1       1.714  -1.855  -2.606  1.00  0.00    +0.053 C 
ATOM     15  C   UNL     1       0.059  -1.371  -0.694  1.00  0.00    +0.076 C 
ENDROOT
BRANCH   1  16
ATOM     16  C   UNL     1       2.305  -1.600   0.363  1.00  0.00    +0.053 A 
ATOM     17  C   UNL     1       4.216  -0.136  -0.058  1.00  0.00    +0.043 A 
ATOM     18  C   UNL     1       5.074  -1.168   0.339  1.00  0.00    +0.026 A 
ATOM     19  C   UNL     1       2.837  -0.360  -0.038  1.00  0.00    +0.053 A 
ATOM     20  C   UNL     1       4.561  -2.398   0.756  1.00  0.00    +0.004 A 
ATOM     21  C   UNL     1       3.183  -2.611   0.772  1.00  0.00    +0.027 A 
BRANCH  17  22
ATOM     22  N   UNL     1       4.811   1.080  -0.456  1.00  0.00    -0.326 N 
ATOM     23  C   UNL     1       4.170   2.231  -0.880  1.00  0.00    +0.221 C 
ATOM     24  O   UNL     1       2.962   2.402  -0.998  1.00  0.00    -0.275 OA
ATOM     25  C   UNL     1       5.143   3.327  -1.239  1.00  0.00    +0.114 C 
ATOM     26  H   UNL     1       5.822   1.108  -0.428  1.00  0.00    +0.169 HD
ENDBRANCH  17  22
ENDBRANCH   1  16
BRANCH   4  27
ATOM     27  C   UNL     1      -1.591  -2.442   3.102  1.00  0.00    +0.096 C 
ATOM     28  C   UNL     1      -1.147  -1.839   4.416  1.00  0.00    +0.028 C 
ATOM     29  C   UNL     1      -2.527  -1.570   3.910  1.00  0.00    +0.028 C 
ENDBRANCH   4  27
BRANCH   8  30
ATOM     30  N   UNL     1      -3.379   0.132  -0.884  1.00  0.00    -0.338 N 
ATOM     31  H   UNL     1      -3.841  -0.545  -0.254  1.00  0.00    +0.168 HD
BRANCH  30  32
ATOM     32  C   UNL     1      -3.610   1.416  -0.295  1.00  0.00    +0.076 A 
ATOM     33  C   UNL     1      -2.703   2.480  -0.389  1.00  0.00    +0.030 A 
ATOM     34  C   UNL     1      -4.848   1.664   0.323  1.00  0.00    +0.147 A 
ATOM     35  C   UNL     1      -3.011   3.732   0.158  1.00  0.00    +0.017 A 
ATOM     36  C   UNL     1      -5.166   2.904   0.871  1.00  0.00    +0.056 A 
ATOM     37  C   UNL     1      -4.239   3.937   0.787  1.00  0.00    +0.016 A 
ATOM     38  F   UNL     1      -5.753   0.676   0.406  1.00  0.00    -0.205 F 
ATOM     39  I   UNL     1      -4.688   5.797   1.596  1.00  0.00    -0.044 I 
ENDBRANCH  30  32
ENDBRANCH   8  30
TORSDOF 5
