REMARK SMILES CC(=O)Nc1cccc(-n2c(=O)n(C3CC3)c(=O)c3c(Nc4ccc(I)cc4F)n(C)c(=O)c(C)c32)c1
REMARK SMILES IDX 10 1 11 2 12 3 13 4 17 5 18 6 19 7 20 8 30 9 31 10 32 11
REMARK SMILES IDX 33 12 34 13 35 14 36 15 9 16 5 17 6 18 37 19 7 20 8 21 4 22
REMARK SMILES IDX 2 23 3 24 1 25 14 27 15 28 16 29 21 30 22 32 23 33 28 34
REMARK SMILES IDX 24 35 27 36 25 37 29 38 26 39
REMARK H PARENT 4 26 21 31
ROOT
ATOM      1  N   UNL     1       1.238   1.078   0.374  1.00  0.00    -0.261 N 
ATOM      2  C   UNL     1       0.710   2.388   0.217  1.00  0.00    +0.336 C 
ATOM      3  O   UNL     1       1.386   3.418   0.312  1.00  0.00    -0.247 OA
ATOM      4  N   UNL     1      -0.641   2.468  -0.123  1.00  0.00    -0.256 N 
ATOM      5  C   UNL     1      -1.195   1.478  -0.908  1.00  0.00    +0.268 C 
ATOM      6  O   UNL     1      -1.949   1.683  -1.859  1.00  0.00    -0.268 OA
ATOM      7  C   UNL     1      -0.813   0.103  -0.495  1.00  0.00    +0.106 C 
ATOM      8  C   UNL     1      -1.651  -0.927  -0.777  1.00  0.00    +0.128 C 
ATOM      9  N   UNL     1      -1.271  -2.201  -0.347  1.00  0.00    -0.297 N 
ATOM     10  C   UNL     1      -2.033  -3.369  -0.780  1.00  0.00    +0.155 C 
ATOM     11  C   UNL     1      -0.200  -2.430   0.504  1.00  0.00    +0.256 C 
ATOM     12  O   UNL     1       0.058  -3.535   0.980  1.00  0.00    -0.269 OA
ATOM     13  C   UNL     1       0.669  -1.255   0.842  1.00  0.00    +0.040 C 
ATOM     14  C   UNL     1       1.717  -1.577   1.874  1.00  0.00    +0.053 C 
ATOM     15  C   UNL     1       0.416  -0.062   0.257  1.00  0.00    +0.076 C 
ENDROOT
BRANCH   1  16
ATOM     16  C   UNL     1       2.683   0.975   0.453  1.00  0.00    +0.053 A 
ATOM     17  C   UNL     1       4.756  -0.100  -0.279  1.00  0.00    +0.043 A 
ATOM     18  C   UNL     1       5.478   0.742   0.572  1.00  0.00    +0.026 A 
ATOM     19  C   UNL     1       3.365   0.027  -0.335  1.00  0.00    +0.053 A 
ATOM     20  C   UNL     1       4.821   1.695   1.350  1.00  0.00    +0.004 A 
ATOM     21  C   UNL     1       3.433   1.811   1.290  1.00  0.00    +0.027 A 
BRANCH  17  22
ATOM     22  N   UNL     1       5.493  -1.034  -1.039  1.00  0.00    -0.326 N 
ATOM     23  C   UNL     1       4.999  -1.979  -1.920  1.00  0.00    +0.221 C 
ATOM     24  O   UNL     1       3.822  -2.193  -2.186  1.00  0.00    -0.275 OA
ATOM     25  C   UNL     1       6.094  -2.806  -2.546  1.00  0.00    +0.114 C 
ATOM     26  H   UNL     1       6.497  -1.015  -0.910  1.00  0.00    +0.169 HD
ENDBRANCH  17  22
ENDBRANCH   1  16
BRANCH   4  27
ATOM     27  C   UNL     1      -1.215   3.798  -0.247  1.00  0.00    +0.096 C 
ATOM     28  C   UNL     1      -2.634   4.081   0.186  1.00  0.00    +0.028 C 
ATOM     29  C   UNL     1      -1.490   4.644   0.973  1.00  0.00    +0.028 C 
ENDBRANCH   4  27
BRANCH   8  30
ATOM     30  N   UNL     1      -2.847  -0.756  -1.481  1.00  0.00    -0.338 N 
ATOM     31  H   UNL     1      -2.800   0.065  -2.107  1.00  0.00    +0.168 HD
BRANCH  30  32
ATOM     32  C   UNL     1      -4.130  -0.699  -0.854  1.00  0.00    +0.076 A 
ATOM     33  C   UNL     1      -4.368  -1.104   0.465  1.00  0.00    +0.030 A 
ATOM     34  C   UNL     1      -5.237  -0.299  -1.624  1.00  0.00    +0.147 A 
ATOM     35  C   UNL     1      -5.661  -1.073   1.001  1.00  0.00    +0.017 A 
ATOM     36  C   UNL     1      -6.528  -0.263  -1.104  1.00  0.00    +0.056 A 
ATOM     37  C   UNL     1      -6.734  -0.651   0.215  1.00  0.00    +0.016 A 
ATOM     38  F   UNL     1      -5.051   0.075  -2.900  1.00  0.00    -0.205 F 
ATOM     39  I   UNL     1      -8.650  -0.608   1.018  1.00  0.00    -0.044 I 
ENDBRANCH  30  32
ENDBRANCH   8  30
TORSDOF 5
