REMARK SMILES O=C(CCCCCCC(=O)Nc1ccccc1)NO
REMARK SMILES IDX 5 1 4 2 3 3 2 4 1 5 18 6 19 8 6 10 7 11 8 12 9 13 10 14
REMARK SMILES IDX 11 15 12 17 13 18 17 19 14 20 16 21 15 22
REMARK H PARENT 18 7 19 9 11 16
ROOT
ATOM      1  C   UNL     1      -2.746   0.776   0.210  1.00  0.00    +0.001 C 
ENDROOT
BRANCH   1   2
ATOM      2  C   UNL     1      -4.064   0.814   1.000  1.00  0.00    +0.010 C 
BRANCH   2   3
ATOM      3  C   UNL     1      -5.230   1.378   0.173  1.00  0.00    +0.102 C 
BRANCH   3   4
ATOM      4  C   UNL     1      -5.630   0.498  -0.982  1.00  0.00    +0.243 C 
ATOM      5  O   UNL     1      -5.480  -0.754  -0.915  1.00  0.00    -0.273 OA
ATOM      6  N   UNL     1      -6.253   1.076  -2.134  1.00  0.00    -0.238 N 
ATOM      7  H   UNL     1      -6.450   2.102  -2.166  1.00  0.00    +0.198 HD
BRANCH   6   8
ATOM      8  O   UNL     1      -6.575   0.307  -3.202  1.00  0.00    -0.289 OA
ATOM      9  H   UNL     1      -7.499  -0.005  -3.022  1.00  0.00    +0.246 HD
ENDBRANCH   6   8
ENDBRANCH   3   4
ENDBRANCH   2   3
ENDBRANCH   1   2
BRANCH   1  10
ATOM     10  C   UNL     1      -1.611   0.215   1.074  1.00  0.00    +0.001 C 
BRANCH  10  11
ATOM     11  C   UNL     1      -0.305   0.105   0.279  1.00  0.00    +0.010 C 
BRANCH  11  12
ATOM     12  C   UNL     1       0.809  -0.503   1.142  1.00  0.00    +0.100 C 
BRANCH  12  13
ATOM     13  C   UNL     1       2.104  -0.649   0.393  1.00  0.00    +0.224 C 
ATOM     14  O   UNL     1       2.093  -0.922  -0.839  1.00  0.00    -0.275 OA
ATOM     15  N   UNL     1       3.345  -0.617   1.114  1.00  0.00    -0.326 N 
ATOM     16  H   UNL     1       3.307  -0.661   2.158  1.00  0.00    +0.169 HD
BRANCH  15  17
ATOM     17  C   UNL     1       4.631  -0.735   0.484  1.00  0.00    +0.041 A 
ATOM     18  C   UNL     1       4.928  -0.042  -0.702  1.00  0.00    +0.026 A 
ATOM     19  C   UNL     1       5.623  -1.527   1.080  1.00  0.00    +0.026 A 
ATOM     20  C   UNL     1       6.192  -0.161  -1.292  1.00  0.00    +0.002 A 
ATOM     21  C   UNL     1       6.881  -1.654   0.482  1.00  0.00    +0.002 A 
ATOM     22  C   UNL     1       7.166  -0.970  -0.704  1.00  0.00    +0.000 A 
ENDBRANCH  15  17
ENDBRANCH  12  13
ENDBRANCH  11  12
ENDBRANCH  10  11
ENDBRANCH   1  10
TORSDOF 9
