REMARK SMILES O=C(CCCCCCC(=O)Nc1ccccc1)NO
REMARK SMILES IDX 5 1 4 2 3 3 2 4 1 5 18 6 19 8 6 10 7 11 8 12 9 13 10 14
REMARK SMILES IDX 11 15 12 17 13 18 17 19 14 20 16 21 15 22
REMARK H PARENT 18 7 19 9 11 16
ROOT
ATOM      1  C   UNL     1       2.671  -0.268   0.375  1.00  0.00    +0.001 C 
ENDROOT
BRANCH   1   2
ATOM      2  C   UNL     1       3.962   0.171  -0.316  1.00  0.00    +0.010 C 
BRANCH   2   3
ATOM      3  C   UNL     1       5.194  -0.337   0.430  1.00  0.00    +0.102 C 
BRANCH   3   4
ATOM      4  C   UNL     1       6.483   0.087  -0.241  1.00  0.00    +0.243 C 
ATOM      5  O   UNL     1       6.550   0.750  -1.273  1.00  0.00    -0.273 OA
ATOM      6  N   UNL     1       7.610  -0.341   0.425  1.00  0.00    -0.238 N 
ATOM      7  H   UNL     1       7.597  -1.165   1.017  1.00  0.00    +0.198 HD
BRANCH   6   8
ATOM      8  O   UNL     1       8.831  -0.083  -0.246  1.00  0.00    -0.289 OA
ATOM      9  H   UNL     1       8.533   0.418  -1.039  1.00  0.00    +0.246 HD
ENDBRANCH   6   8
ENDBRANCH   3   4
ENDBRANCH   2   3
ENDBRANCH   1   2
BRANCH   1  10
ATOM     10  C   UNL     1       1.439   0.244  -0.372  1.00  0.00    +0.001 C 
BRANCH  10  11
ATOM     11  C   UNL     1       0.148  -0.198   0.318  1.00  0.00    +0.010 C 
BRANCH  11  12
ATOM     12  C   UNL     1      -1.085   0.314  -0.425  1.00  0.00    +0.100 C 
BRANCH  12  13
ATOM     13  C   UNL     1      -2.385  -0.114   0.240  1.00  0.00    +0.224 C 
ATOM     14  O   UNL     1      -2.402  -0.798   1.257  1.00  0.00    -0.275 OA
ATOM     15  N   UNL     1      -3.485   0.367  -0.452  1.00  0.00    -0.326 N 
ATOM     16  H   UNL     1      -3.294   0.920  -1.278  1.00  0.00    +0.169 HD
BRANCH  15  17
ATOM     17  C   UNL     1      -4.848   0.179  -0.143  1.00  0.00    +0.041 A 
ATOM     18  C   UNL     1      -5.308  -0.552   0.954  1.00  0.00    +0.026 A 
ATOM     19  C   UNL     1      -5.785   0.769  -1.002  1.00  0.00    +0.026 A 
ATOM     20  C   UNL     1      -6.680  -0.691   1.189  1.00  0.00    +0.002 A 
ATOM     21  C   UNL     1      -7.156   0.631  -0.767  1.00  0.00    +0.002 A 
ATOM     22  C   UNL     1      -7.603  -0.100   0.330  1.00  0.00    +0.000 A 
ENDBRANCH  15  17
ENDBRANCH  12  13
ENDBRANCH  11  12
ENDBRANCH  10  11
ENDBRANCH   1  10
TORSDOF 9
