REMARK SMILES O=C(CCCCCCC(=O)Nc1ccccc1)NO
REMARK SMILES IDX 5 1 4 2 3 3 2 4 18 5 1 6 19 8 6 10 7 11 8 12 9 13 10 14
REMARK SMILES IDX 11 15 12 17 13 18 17 19 14 20 16 21 15 22
REMARK H PARENT 18 7 19 9 11 16
ROOT
ATOM      1  C   UNL     1       2.315  -0.012   0.471  1.00  0.00    +0.001 C 
ENDROOT
BRANCH   1   2
ATOM      2  C   UNL     1       2.869  -0.571  -0.851  1.00  0.00    +0.010 C 
BRANCH   2   3
ATOM      3  C   UNL     1       4.337  -0.178  -1.081  1.00  0.00    +0.102 C 
BRANCH   3   4
ATOM      4  C   UNL     1       5.251  -0.751  -0.035  1.00  0.00    +0.243 C 
ATOM      5  N   UNL     1       6.256   0.068   0.570  1.00  0.00    -0.238 N 
ATOM      6  O   UNL     1       5.161  -1.969   0.280  1.00  0.00    -0.273 OA
ATOM      7  H   UNL     1       6.416   1.046   0.233  1.00  0.00    +0.198 HD
BRANCH   5   8
ATOM      8  O   UNL     1       7.040  -0.424   1.557  1.00  0.00    -0.289 OA
ATOM      9  H   UNL     1       6.589  -0.153   2.399  1.00  0.00    +0.246 HD
ENDBRANCH   5   8
ENDBRANCH   3   4
ENDBRANCH   2   3
ENDBRANCH   1   2
BRANCH   1  10
ATOM     10  C   UNL     1       0.830  -0.365   0.639  1.00  0.00    +0.001 C 
BRANCH  10  11
ATOM     11  C   UNL     1       0.289   0.174   1.972  1.00  0.00    +0.010 C 
BRANCH  11  12
ATOM     12  C   UNL     1      -1.178  -0.209   2.212  1.00  0.00    +0.100 C 
BRANCH  12  13
ATOM     13  C   UNL     1      -2.090   0.416   1.196  1.00  0.00    +0.224 C 
ATOM     14  O   UNL     1      -2.191   1.674   1.153  1.00  0.00    -0.275 OA
ATOM     15  N   UNL     1      -2.765  -0.408   0.233  1.00  0.00    -0.326 N 
ATOM     16  H   UNL     1      -2.422  -1.389   0.112  1.00  0.00    +0.169 HD
BRANCH  15  17
ATOM     17  C   UNL     1      -3.825   0.040  -0.629  1.00  0.00    +0.041 A 
ATOM     18  C   UNL     1      -4.705   1.077  -0.248  1.00  0.00    +0.026 A 
ATOM     19  C   UNL     1      -4.027  -0.613  -1.858  1.00  0.00    +0.026 A 
ATOM     20  C   UNL     1      -5.744   1.471  -1.100  1.00  0.00    +0.002 A 
ATOM     21  C   UNL     1      -5.066  -0.215  -2.706  1.00  0.00    +0.002 A 
ATOM     22  C   UNL     1      -5.922   0.826  -2.328  1.00  0.00    +0.000 A 
ENDBRANCH  15  17
ENDBRANCH  12  13
ENDBRANCH  11  12
ENDBRANCH  10  11
ENDBRANCH   1  10
TORSDOF 9
