REMARK SMILES Cc1ncc(CN(N=O)C(=O)NCCCl)cn1
REMARK SMILES IDX 10 1 11 2 12 3 7 5 6 6 5 7 2 8 3 9 17 10 4 11 16 12 1 13
REMARK SMILES IDX 8 14 9 15 13 16 14 17 15 18
REMARK H PARENT 12 4
ROOT
ATOM      1  C   UNL     1      -1.802  -1.272   0.028  1.00  0.00    +0.340 C 
ATOM      2  O   UNL     1      -2.682  -1.987  -0.442  1.00  0.00    -0.247 OA
ATOM      3  N   UNL     1      -1.731   0.070  -0.333  1.00  0.00    -0.335 N 
ATOM      4  H   UNL     1      -0.786   0.390  -0.495  1.00  0.00    +0.165 HD
ENDROOT
BRANCH   1   5
ATOM      5  N   UNL     1      -0.834  -1.667   0.957  1.00  0.00    -0.174 N 
BRANCH   5   6
ATOM      6  C   UNL     1      -0.069  -0.738   1.787  1.00  0.00    +0.192 C 
BRANCH   6   7
ATOM      7  C   UNL     1       1.153  -0.189   1.116  1.00  0.00    +0.011 A 
ATOM      8  C   UNL     1       3.373   0.847  -0.064  1.00  0.00    +0.125 A 
ATOM      9  N   UNL     1       2.582   1.685   0.630  1.00  0.00    -0.241 NA
ATOM     10  N   UNL     1       3.149  -0.473  -0.193  1.00  0.00    -0.241 NA
ATOM     11  C   UNL     1       1.495   1.145   1.212  1.00  0.00    +0.120 A 
ATOM     12  C   UNL     1       2.046  -0.963   0.404  1.00  0.00    +0.120 A 
ATOM     13  C   UNL     1       4.609   1.411  -0.692  1.00  0.00    +0.089 C 
ENDBRANCH   6   7
ENDBRANCH   5   6
BRANCH   5  14
ATOM     14  N   UNL     1      -0.682  -3.113   1.348  1.00  0.00    +0.062 NA
ATOM     15  O   UNL     1      -1.254  -3.909   0.601  1.00  0.00    -0.125 OA
ENDBRANCH   5  14
ENDBRANCH   1   5
BRANCH   3  16
ATOM     16  C   UNL     1      -2.688   0.608  -1.297  1.00  0.00    +0.134 C 
BRANCH  16  17
ATOM     17  C   UNL     1      -4.114   0.700  -0.757  1.00  0.00    +0.131 C 
ATOM     18 Cl   UNL     1      -5.154   1.587  -1.899  1.00  0.00    -0.125 Cl
ENDBRANCH  16  17
ENDBRANCH   3  16
TORSDOF 6
