REMARK SMILES Cc1ccc(Nc2nc(Nc3ccc4[nH]nc(C)c4c3)nc(N(C)C)n2)cc1S(N)(=O)=O
REMARK SMILES IDX 6 1 5 3 2 4 3 5 28 6 4 7 27 8 1 9 29 10 31 11 32 12 30 13
REMARK SMILES IDX 7 16 8 17 26 18 9 19 22 20 21 21 10 22 11 24 12 25 20 26
REMARK SMILES IDX 13 27 19 28 14 29 17 30 15 31 16 32 18 33 23 35 24 36 25 37
REMARK H PARENT 6 2 30 14 30 15 10 23 15 34
ROOT
ATOM      1  N   UNL     1       1.484   0.262   0.278  1.00  0.00    -0.324 N 
ATOM      2  H   UNL     1       1.062   1.180   0.255  1.00  0.00    +0.170 HD
ENDROOT
BRANCH   1   3
ATOM      3  C   UNL     1       2.877   0.211   0.384  1.00  0.00    +0.042 A 
ATOM      4  C   UNL     1       5.714   0.219   0.714  1.00  0.00    -0.031 A 
ATOM      5  C   UNL     1       5.026  -0.939   0.324  1.00  0.00    +0.007 A 
ATOM      6  C   UNL     1       4.959   1.381   0.939  1.00  0.00    +0.087 A 
ATOM      7  C   UNL     1       3.634  -0.942   0.172  1.00  0.00    +0.026 A 
ATOM      8  C   UNL     1       3.562   1.369   0.776  1.00  0.00    +0.048 A 
ATOM      9  C   UNL     1       7.210   0.158   0.834  1.00  0.00    +0.046 C 
BRANCH   6  10
ATOM     10  S   UNL     1       5.712   2.922   1.406  1.00  0.00    +0.238 S 
ATOM     11  O   UNL     1       6.947   3.103   0.682  1.00  0.00    -0.207 OA
ATOM     12  O   UNL     1       4.701   3.954   1.456  1.00  0.00    -0.207 OA
BRANCH  10  13
ATOM     13  N   UNL     1       6.133   2.647   3.008  1.00  0.00    -0.225 NA
ATOM     14  H   UNL     1       5.607   3.278   3.614  1.00  0.00    +0.137 HD
ATOM     15  H   UNL     1       7.144   2.720   3.118  1.00  0.00    +0.137 HD
ENDBRANCH  10  13
ENDBRANCH   6  10
ENDBRANCH   1   3
BRANCH   1  16
ATOM     16  C   UNL     1       0.495  -0.695   0.051  1.00  0.00    +0.233 A 
ATOM     17  N   UNL     1      -0.720  -0.200  -0.141  1.00  0.00    -0.176 NA
ATOM     18  N   UNL     1       0.765  -1.993   0.059  1.00  0.00    -0.176 NA
ATOM     19  C   UNL     1      -1.684  -1.082  -0.351  1.00  0.00    +0.233 A 
ATOM     20  C   UNL     1      -0.250  -2.823  -0.142  1.00  0.00    +0.231 A 
ATOM     21  N   UNL     1      -1.490  -2.395  -0.355  1.00  0.00    -0.176 NA
BRANCH  19  22
ATOM     22  N   UNL     1      -3.004  -0.690  -0.574  1.00  0.00    -0.324 N 
ATOM     23  H   UNL     1      -3.565  -1.515  -0.729  1.00  0.00    +0.170 HD
BRANCH  22  24
ATOM     24  C   UNL     1      -3.650   0.545  -0.716  1.00  0.00    +0.042 A 
ATOM     25  C   UNL     1      -2.992   1.779  -0.654  1.00  0.00    +0.028 A 
ATOM     26  C   UNL     1      -5.048   0.543  -0.899  1.00  0.00    +0.038 A 
ATOM     27  C   UNL     1      -3.668   3.003  -0.781  1.00  0.00    +0.030 A 
ATOM     28  C   UNL     1      -5.753   1.756  -1.029  1.00  0.00    +0.025 A 
ATOM     29  C   UNL     1      -5.049   2.949  -0.968  1.00  0.00    +0.065 A 
ATOM     30  C   UNL     1      -7.107   2.142  -1.221  1.00  0.00    +0.067 A 
ATOM     31  N   UNL     1      -5.989   3.931  -1.124  1.00  0.00    -0.278 N 
ATOM     32  N   UNL     1      -7.244   3.474  -1.278  1.00  0.00    -0.180 NA
ATOM     33  C   UNL     1      -8.291   1.260  -1.355  1.00  0.00    +0.069 C 
ATOM     34  H   UNL     1      -5.840   4.933  -1.133  1.00  0.00    +0.190 HD
ENDBRANCH  22  24
ENDBRANCH  19  22
BRANCH  20  35
ATOM     35  N   UNL     1      -0.004  -4.200  -0.155  1.00  0.00    -0.347 N 
ATOM     36  C   UNL     1       1.220  -4.604   0.521  1.00  0.00    +0.146 C 
ATOM     37  C   UNL     1      -1.176  -5.032   0.069  1.00  0.00    +0.146 C 
ENDBRANCH  20  35
ENDBRANCH   1  16
TORSDOF 7
