REMARK SMILES Cc1nc(-c2ccc(F)c(N3CCOCC3)c2)nc(N2CCOCC2)n1
REMARK SMILES IDX 1 1 2 2 3 3 4 4 18 5 19 6 26 7 5 8 6 9 17 10 7 11 10 12 8 13
REMARK SMILES IDX 9 14 11 15 12 16 16 17 13 18 15 19 14 20 20 21 21 22 25 23
REMARK SMILES IDX 22 24 24 25 23 26
REMARK H PARENT
ROOT
ATOM      1  C   UNL     1      -1.394  -2.362   3.104  1.00  0.00    +0.090 C 
ATOM      2  C   UNL     1      -1.576  -1.475   1.912  1.00  0.00    +0.131 A 
ATOM      3  N   UNL     1      -0.484  -1.057   1.282  1.00  0.00    -0.213 NA
ATOM      4  C   UNL     1      -0.713  -0.246   0.250  1.00  0.00    +0.165 A 
ATOM      5  N   UNL     1      -1.925   0.145  -0.152  1.00  0.00    -0.193 NA
ATOM      6  C   UNL     1      -2.963  -0.319   0.539  1.00  0.00    +0.229 A 
ATOM      7  N   UNL     1      -2.821  -1.129   1.587  1.00  0.00    -0.198 NA
ENDROOT
BRANCH   4   8
ATOM      8  C   UNL     1       0.455   0.261  -0.502  1.00  0.00    +0.022 A 
ATOM      9  C   UNL     1       0.309   1.197  -1.542  1.00  0.00    +0.015 A 
ATOM     10  C   UNL     1       1.767  -0.174  -0.208  1.00  0.00    +0.041 A 
ATOM     11  C   UNL     1       1.415   1.671  -2.247  1.00  0.00    +0.042 A 
ATOM     12  C   UNL     1       2.906   0.282  -0.903  1.00  0.00    +0.074 A 
ATOM     13  C   UNL     1       2.691   1.217  -1.927  1.00  0.00    +0.146 A 
ATOM     14  F   UNL     1       3.720   1.741  -2.612  1.00  0.00    -0.205 F 
BRANCH  12  15
ATOM     15  N   UNL     1       4.163  -0.221  -0.517  1.00  0.00    -0.365 N 
ATOM     16  C   UNL     1       5.264  -0.239  -1.507  1.00  0.00    +0.145 C 
ATOM     17  C   UNL     1       4.576   0.274   0.821  1.00  0.00    +0.145 C 
ATOM     18  C   UNL     1       6.292   0.861  -1.203  1.00  0.00    +0.181 C 
ATOM     19  C   UNL     1       6.079   0.039   1.043  1.00  0.00    +0.181 C 
ATOM     20  O   UNL     1       6.909   0.723   0.090  1.00  0.00    -0.378 OA
ENDBRANCH  12  15
ENDBRANCH   4   8
BRANCH   6  21
ATOM     21  N   UNL     1      -4.249   0.091   0.175  1.00  0.00    -0.336 N 
ATOM     22  C   UNL     1      -4.373   0.501  -1.234  1.00  0.00    +0.148 C 
ATOM     23  C   UNL     1      -5.319  -0.813   0.627  1.00  0.00    +0.148 C 
ATOM     24  C   UNL     1      -5.791   1.023  -1.509  1.00  0.00    +0.181 C 
ATOM     25  C   UNL     1      -6.693  -0.229   0.264  1.00  0.00    +0.181 C 
ATOM     26  O   UNL     1      -6.790   0.060  -1.139  1.00  0.00    -0.378 OA
ENDBRANCH   6  21
TORSDOF 3
