REMARK SMILES Cn1c(=O)nc2nnn(C)n2c1=O
REMARK SMILES IDX 1 1 2 2 12 3 13 4 11 5 6 6 5 7 3 8 4 9 7 10 8 11 9 12 10 13
REMARK H PARENT
ROOT
ATOM      1  C   UNL     1       2.679  -0.996   0.313  1.00  0.00    +0.160 C 
ATOM      2  N   UNL     1       1.552  -0.140   0.001  1.00  0.00    -0.245 N 
ATOM      3  C   UNL     1       0.268  -0.661   0.062  1.00  0.00    +0.355 C 
ATOM      4  O   UNL     1       0.032  -1.855   0.243  1.00  0.00    -0.245 OA
ATOM      5  N   UNL     1      -0.703   0.282  -0.131  1.00  0.00    -0.147 N 
ATOM      6  C   UNL     1      -0.411   1.424  -0.774  1.00  0.00    +0.280 C 
ATOM      7  N   UNL     1       0.767   1.886  -0.971  1.00  0.00    -0.153 NA
ATOM      8  C   UNL     1       1.813   1.131  -0.507  1.00  0.00    +0.354 C 
ATOM      9  O   UNL     1       2.963   1.560  -0.567  1.00  0.00    -0.245 OA
ATOM     10  N   UNL     1      -1.570   2.000  -1.231  1.00  0.00    -0.089 NA
ATOM     11  N   UNL     1      -2.534   1.212  -0.968  1.00  0.00    -0.047 NA
ATOM     12  N   UNL     1      -2.034   0.057  -0.387  1.00  0.00    -0.178 N 
ATOM     13  C   UNL     1      -2.789  -0.464   0.735  1.00  0.00    +0.199 C 
ENDROOT
TORSDOF 0
