REMARK SMILES O=NN(CCCl)C(=O)NCCCl
REMARK SMILES IDX 7 1 8 2 9 3 3 5 2 6 1 7 4 8 5 9 6 10 10 11 11 12 12 13
REMARK H PARENT 9 4
ROOT
ATOM      1  C   UNL     1       0.074   0.803   0.817  1.00  0.00    +0.340 C 
ATOM      2  O   UNL     1       0.599   1.037   1.902  1.00  0.00    -0.247 OA
ATOM      3  N   UNL     1       0.798   0.146  -0.174  1.00  0.00    -0.335 N 
ATOM      4  H   UNL     1       0.678   0.548  -1.094  1.00  0.00    +0.165 HD
ENDROOT
BRANCH   1   5
ATOM      5  N   UNL     1      -1.243   1.107   0.452  1.00  0.00    -0.177 N 
BRANCH   5   6
ATOM      6  N   UNL     1      -2.126   1.924   1.356  1.00  0.00    +0.061 NA
ATOM      7  O   UNL     1      -1.539   2.476   2.289  1.00  0.00    -0.125 OA
ENDBRANCH   5   6
BRANCH   5   8
ATOM      8  C   UNL     1      -1.933   0.538  -0.708  1.00  0.00    +0.169 C 
BRANCH   8   9
ATOM      9  C   UNL     1      -2.247  -0.950  -0.564  1.00  0.00    +0.133 C 
ATOM     10 Cl   UNL     1      -3.529  -1.249   0.634  1.00  0.00    -0.125 Cl
ENDBRANCH   8   9
ENDBRANCH   5   8
ENDBRANCH   1   5
BRANCH   3  11
ATOM     11  C   UNL     1       2.182  -0.224   0.100  1.00  0.00    +0.134 C 
BRANCH  11  12
ATOM     12  C   UNL     1       2.754  -1.160  -0.959  1.00  0.00    +0.131 C 
ATOM     13 Cl   UNL     1       2.685  -0.410  -2.578  1.00  0.00    -0.125 Cl
ENDBRANCH  11  12
ENDBRANCH   3  11
TORSDOF 6
