REMARK SMILES CC(=O)c1c(C)c2cnc(Nc3ccc(N4CCNCC4)cn3)nc2n1C1CCCC1
REMARK SMILES IDX 11 1 10 3 4 4 5 5 26 6 7 7 25 8 8 9 24 10 9 11 6 12 2 13
REMARK SMILES IDX 3 14 1 15 27 16 28 17 31 18 29 19 30 20 12 21 13 22 23 23
REMARK SMILES IDX 14 24 22 25 15 26 16 27 17 28 21 29 18 30 20 31 19 32
REMARK H PARENT 11 2 19 33
ROOT
ATOM      1  N   UNL     1       0.710  -0.560  -0.104  1.00  0.00    -0.309 N 
ATOM      2  H   UNL     1       0.411  -1.437  -0.498  1.00  0.00    +0.171 HD
ENDROOT
BRANCH   1   3
ATOM      3  C   UNL     1      -0.349   0.167   0.413  1.00  0.00    +0.230 A 
ATOM      4  C   UNL     1      -4.660   0.884   1.388  1.00  0.00    +0.090 A 
ATOM      5  C   UNL     1      -3.791   1.908   1.777  1.00  0.00    -0.011 A 
ATOM      6  N   UNL     1      -3.900  -0.095   0.765  1.00  0.00    -0.319 N 
ATOM      7  C   UNL     1      -2.479   1.523   1.392  1.00  0.00    +0.041 A 
ATOM      8  C   UNL     1      -2.571   0.288   0.787  1.00  0.00    +0.146 A 
ATOM      9  C   UNL     1      -1.200   2.058   1.484  1.00  0.00    +0.127 A 
ATOM     10  N   UNL     1      -1.548  -0.424   0.285  1.00  0.00    -0.194 NA
ATOM     11  N   UNL     1      -0.147   1.370   0.988  1.00  0.00    -0.221 NA
ATOM     12  C   UNL     1      -4.154   3.162   2.497  1.00  0.00    +0.047 C 
BRANCH   4  13
ATOM     13  C   UNL     1      -6.091   0.843   1.628  1.00  0.00    +0.176 C 
ATOM     14  O   UNL     1      -6.621   0.004   2.351  1.00  0.00    -0.293 OA
ATOM     15  C   UNL     1      -6.913   1.931   0.981  1.00  0.00    +0.095 C 
ENDBRANCH   4  13
BRANCH   6  16
ATOM     16  C   UNL     1      -4.303  -1.328   0.106  1.00  0.00    +0.089 C 
ATOM     17  C   UNL     1      -5.716  -1.883   0.286  1.00  0.00    +0.025 C 
ATOM     18  C   UNL     1      -4.183  -1.250  -1.426  1.00  0.00    +0.025 C 
ATOM     19  C   UNL     1      -5.783  -2.975  -0.773  1.00  0.00    +0.002 C 
ATOM     20  C   UNL     1      -5.060  -2.378  -1.975  1.00  0.00    +0.002 C 
ENDBRANCH   6  16
ENDBRANCH   1   3
BRANCH   1  21
ATOM     21  C   UNL     1       2.074  -0.370  -0.203  1.00  0.00    +0.132 A 
ATOM     22  C   UNL     1       2.749   0.750   0.256  1.00  0.00    +0.049 A 
ATOM     23  N   UNL     1       2.744  -1.375  -0.801  1.00  0.00    -0.237 NA
ATOM     24  C   UNL     1       4.140   0.840   0.112  1.00  0.00    +0.031 A 
ATOM     25  C   UNL     1       4.093  -1.255  -0.932  1.00  0.00    +0.139 A 
ATOM     26  C   UNL     1       4.874  -0.187  -0.482  1.00  0.00    +0.055 A 
BRANCH  26  27
ATOM     27  N   UNL     1       6.264  -0.154  -0.662  1.00  0.00    -0.368 N 
ATOM     28  C   UNL     1       6.979  -1.367  -0.195  1.00  0.00    +0.132 C 
ATOM     29  C   UNL     1       6.977   1.104  -0.356  1.00  0.00    +0.132 C 
ATOM     30  C   UNL     1       8.461  -1.349  -0.638  1.00  0.00    +0.102 C 
ATOM     31  C   UNL     1       8.452   1.034  -0.810  1.00  0.00    +0.102 C 
ATOM     32  N   UNL     1       9.184  -0.121  -0.253  1.00  0.00    -0.313 NA
ATOM     33  H   UNL     1       9.165  -0.048   0.764  1.00  0.00    +0.122 HD
ENDBRANCH  26  27
ENDBRANCH   1  21
TORSDOF 5
