REMARK SMILES CNNCc1ccc(C(=O)NC(C)C)cc1
REMARK SMILES IDX 8 1 7 2 6 3 5 4 16 5 15 6 9 7 11 8 10 9 12 11 13 12 14 13
REMARK SMILES IDX 4 14 3 15 2 17 1 18
REMARK H PARENT 11 10 3 16 2 19
ROOT
ATOM      1  C   UNL     1      -0.788  -0.628  -0.328  1.00  0.00    +0.039 A 
ATOM      2  C   UNL     1       0.043  -1.480  -1.065  1.00  0.00    +0.014 A 
ATOM      3  C   UNL     1       1.379  -1.141  -1.291  1.00  0.00    +0.006 A 
ATOM      4  C   UNL     1       1.905   0.052  -0.778  1.00  0.00    -0.033 A 
ATOM      5  C   UNL     1       1.074   0.891  -0.021  1.00  0.00    +0.006 A 
ATOM      6  C   UNL     1      -0.264   0.554   0.207  1.00  0.00    +0.014 A 
ENDROOT
BRANCH   1   7
ATOM      7  C   UNL     1      -2.204  -1.037  -0.113  1.00  0.00    +0.251 C 
ATOM      8  N   UNL     1      -3.124  -0.018   0.024  1.00  0.00    -0.350 N 
ATOM      9  O   UNL     1      -2.502  -2.226  -0.092  1.00  0.00    -0.269 OA
ATOM     10  H   UNL     1      -2.822   0.944  -0.035  1.00  0.00    +0.164 HD
BRANCH   8  11
ATOM     11  C   UNL     1      -4.526  -0.285   0.313  1.00  0.00    +0.076 C 
ATOM     12  C   UNL     1      -5.395   0.864  -0.189  1.00  0.00    +0.030 C 
ATOM     13  C   UNL     1      -4.730  -0.502   1.811  1.00  0.00    +0.030 C 
ENDBRANCH   8  11
ENDBRANCH   1   7
BRANCH   4  14
ATOM     14  C   UNL     1       3.354   0.418  -1.007  1.00  0.00    +0.134 C 
BRANCH  14  15
ATOM     15  N   UNL     1       4.133   0.265   0.232  1.00  0.00    -0.254 NA
ATOM     16  H   UNL     1       4.030  -0.710   0.533  1.00  0.00    +0.142 HD
BRANCH  15  17
ATOM     17  N   UNL     1       5.528   0.577  -0.039  1.00  0.00    -0.261 NA
ATOM     18  C   UNL     1       6.299   0.360   1.186  1.00  0.00    +0.120 C 
ATOM     19  H   UNL     1       5.631   1.563  -0.300  1.00  0.00    +0.141 HD
ENDBRANCH  15  17
ENDBRANCH  14  15
ENDBRANCH   4  14
TORSDOF 5
