REMARK SMILES CS(=O)(=O)CCNCc1ccc(C2=CC=C(Nc3ccc(OCc4cccc(F)c4Cl)c(Cl)c3)N=CN=C2)o1
REMARK SMILES IDX 13 1 14 2 12 4 9 5 10 6 39 7 11 8 8 9 7 10 6 12 5 13 2 14
REMARK SMILES IDX 3 15 4 16 1 17 15 18 16 19 17 20 18 22 19 23 34 24 20 25
REMARK SMILES IDX 32 26 21 27 33 28 22 29 23 30 24 31 25 32 30 33 26 34 28 35
REMARK SMILES IDX 27 36 31 37 29 38 35 39 36 40 37 41 38 42
REMARK H PARENT 7 11 17 21
REMARK Flexibility Score:  225.900
ROOT
ATOM      1  C   UNL     1      -2.250  -0.759  -1.804  1.00  0.00    +0.036 CG0
ATOM      2  C   UNL     1      -1.481  -1.783  -2.218  1.00  0.00    +0.017 C 
ATOM      3  G   UNL     1      -1.649   0.608  -1.741  1.00  0.00    +0.000 G0
ENDROOT
BRANCH   1   4
ATOM      4  C   UNL     1      -3.645  -0.898  -1.542  1.00  0.00    +0.135 A 
ATOM      5  C   UNL     1      -5.726  -0.242  -1.078  1.00  0.00    +0.118 A 
ATOM      6  C   UNL     1      -5.775  -1.612  -1.170  1.00  0.00    +0.047 A 
ATOM      7  O   UNL     1      -4.457   0.194  -1.294  1.00  0.00    -0.460 OA
ATOM      8  C   UNL     1      -4.456  -2.029  -1.465  1.00  0.00    +0.051 A 
BRANCH   5   9
ATOM      9  C   UNL     1      -6.751   0.793  -0.781  1.00  0.00    +0.157 C 
BRANCH   9  10
ATOM     10  N   UNL     1      -6.866   0.968   0.671  1.00  0.00    -0.309 NA
ATOM     11  H   UNL     1      -5.942   1.236   1.016  1.00  0.00    +0.123 HD
BRANCH  10  12
ATOM     12  C   UNL     1      -7.850   1.972   1.057  1.00  0.00    +0.097 C 
BRANCH  12  13
ATOM     13  C   UNL     1      -9.303   1.685   0.700  1.00  0.00    +0.152 C 
BRANCH  13  14
ATOM     14  S   UNL     1      -9.959   0.132   1.282  1.00  0.00    +0.148 S 
ATOM     15  O   UNL     1      -9.530  -0.922   0.381  1.00  0.00    -0.229 OA
ATOM     16  O   UNL     1     -11.378   0.343   1.515  1.00  0.00    -0.229 OA
ATOM     17  C   UNL     1      -9.216  -0.162   2.871  1.00  0.00    +0.158 C 
ENDBRANCH  13  14
ENDBRANCH  12  13
ENDBRANCH  10  12
ENDBRANCH   9  10
ENDBRANCH   5   9
ENDBRANCH   1   4
BRANCH   2  18
ATOM     18  C   UNL     1      -0.085  -1.661  -2.604  1.00  0.00    +0.048 C 
ATOM     19  C   UNL     1       0.923  -1.204  -1.821  1.00  0.00    +0.132 C 
BRANCH  19  20
ATOM     20  N   UNL     1       2.190  -1.120  -2.386  1.00  0.00    -0.340 N 
ATOM     21  H   UNL     1       2.218  -1.262  -3.387  1.00  0.00    +0.168 HD
BRANCH  20  22
ATOM     22  C   UNL     1       3.440  -0.870  -1.795  1.00  0.00    +0.041 A 
ATOM     23  C   UNL     1       3.684  -0.933  -0.421  1.00  0.00    +0.030 A 
ATOM     24  C   UNL     1       4.505  -0.486  -2.622  1.00  0.00    +0.050 A 
ATOM     25  C   UNL     1       4.946  -0.640   0.119  1.00  0.00    +0.050 A 
ATOM     26  C   UNL     1       5.766  -0.190  -2.090  1.00  0.00    +0.085 A 
ATOM     27  C   UNL     1       6.001  -0.263  -0.711  1.00  0.00    +0.138 A 
ATOM     28 Cl   UNL     1       7.020   0.271  -3.192  1.00  0.00    -0.080 Cl
BRANCH  27  29
ATOM     29  O   UNL     1       7.265   0.041  -0.282  1.00  0.00    -0.487 OA
BRANCH  29  30
ATOM     30  C   UNL     1       7.521   0.007   1.123  1.00  0.00    +0.267 C 
BRANCH  30  31
ATOM     31  C   UNL     1       8.955   0.392   1.432  1.00  0.00    +0.011 A 
ATOM     32  C   UNL     1       9.858   0.741   0.409  1.00  0.00    +0.009 A 
ATOM     33  C   UNL     1       9.419   0.412   2.761  1.00  0.00    +0.083 A 
ATOM     34  C   UNL     1      11.179   1.096   0.699  1.00  0.00    +0.004 A 
ATOM     35  C   UNL     1      10.742   0.769   3.038  1.00  0.00    +0.142 A 
ATOM     36  C   UNL     1      11.622   1.110   2.017  1.00  0.00    +0.041 A 
ATOM     37 Cl   UNL     1       8.379   0.000   4.082  1.00  0.00    -0.081 Cl
ATOM     38  F   UNL     1      11.193   0.790   4.302  1.00  0.00    -0.205 F 
ENDBRANCH  30  31
ENDBRANCH  29  30
ENDBRANCH  27  29
ENDBRANCH  20  22
ENDBRANCH  19  20
BRANCH  19  39
ATOM     39  N   UNL     1       0.660  -0.914  -0.504  1.00  0.00    -0.219 NA
ATOM     40  C   UNL     1      -0.041   0.133  -0.205  1.00  0.00    +0.224 C 
BRANCH  40  41
ATOM     41  N   UNL     1      -0.620   1.020  -1.071  1.00  0.00    -0.244 NA
ATOM     42  C   UNL     1      -1.649   0.608  -1.741  1.00  0.00    +0.124 CG0
ATOM     43  G   UNL     1      -2.250  -0.759  -1.804  1.00  0.00    +0.000 G0
ENDBRANCH  40  41
ENDBRANCH  19  39
ENDBRANCH   2  18
TORSDOF 11
