REMARK SMILES CC[C@]1(C)[C@@H](O)N2C(=O)[C@@H](CCCl)[C@@H]21
REMARK SMILES IDX 3 1 4 2 14 3 10 4 8 5 9 6 7 7 5 8 2 9 1 10 6 11 11 13 12 14
REMARK SMILES IDX 13 15
REMARK H PARENT 6 12
ROOT
ATOM      1  C   UNL     1       1.190   0.260   0.087  1.00  0.00    +0.033 C 
ATOM      2  C   UNL     1       2.299   1.286  -0.192  1.00  0.00    +0.018 C 
ATOM      3  C   UNL     1      -0.181   0.900  -0.248  1.00  0.00    +0.110 C 
ATOM      4  C   UNL     1      -1.337   0.005  -0.736  1.00  0.00    +0.103 C 
ATOM      5  C   UNL     1      -1.542  -0.319   0.749  1.00  0.00    +0.230 C 
ATOM      6  O   UNL     1      -2.211  -1.099   1.384  1.00  0.00    -0.274 OA
ATOM      7  N   UNL     1      -0.607   0.601   1.138  1.00  0.00    -0.312 N 
ATOM      8  C   UNL     1       0.724   0.181   1.570  1.00  0.00    +0.222 C 
ENDROOT
BRANCH   1   9
ATOM      9  C   UNL     1       1.508  -1.109  -0.546  1.00  0.00    +0.010 C 
ATOM     10  C   UNL     1       2.812  -1.709  -0.037  1.00  0.00    +0.005 C 
ENDBRANCH   1   9
BRANCH   8  11
ATOM     11  O   UNL     1       1.337   1.087   2.494  1.00  0.00    -0.373 OA
ATOM     12  H   UNL     1       0.672   1.171   3.199  1.00  0.00    +0.213 HD
ENDBRANCH   8  11
BRANCH   4  13
ATOM     13  C   UNL     1      -2.491   0.735  -1.419  1.00  0.00    +0.032 C 
BRANCH  13  14
ATOM     14  C   UNL     1      -3.682  -0.199  -1.591  1.00  0.00    +0.110 C 
ATOM     15 Cl   UNL     1      -4.974   0.617  -2.499  1.00  0.00    -0.127 Cl
ENDBRANCH  13  14
ENDBRANCH   4  13
TORSDOF 4
