REMARK SMILES OC1(c2c(F)c(F)c(F)c(Nc3c(F)cccc3I)c2F)CN(Cc2cc(F)ccc2I)CCO1
REMARK SMILES IDX 2 1 22 2 23 3 33 4 34 5 35 6 1 7 3 9 4 10 20 11 6 12 10 13
REMARK SMILES IDX 8 14 5 15 21 16 7 17 9 18 11 19 12 21 13 22 18 23 15 24
REMARK SMILES IDX 17 25 16 26 14 27 19 28 24 29 25 30 26 31 31 32 27 33 30 34
REMARK SMILES IDX 29 35 32 36 28 37
REMARK H PARENT 1 8 11 20
ROOT
ATOM      1  C   UNL     1      -0.691  -1.701   0.074  1.00  0.00    +0.211 C 
ATOM      2  C   UNL     1      -1.217  -0.419   0.833  1.00  0.00    +0.156 C 
ATOM      3  N   UNL     1      -2.680  -0.115   0.731  1.00  0.00    -0.291 NA
ATOM      4  C   UNL     1      -3.387  -1.346   0.346  1.00  0.00    +0.113 C 
ATOM      5  C   UNL     1      -2.839  -2.002  -0.935  1.00  0.00    +0.180 C 
ATOM      6  O   UNL     1      -1.433  -1.809  -1.147  1.00  0.00    -0.343 OA
ENDROOT
BRANCH   1   7
ATOM      7  O   UNL     1      -0.930  -2.867   0.866  1.00  0.00    -0.361 OA
ATOM      8  H   UNL     1      -0.564  -3.612   0.359  1.00  0.00    +0.214 HD
ENDBRANCH   1   7
BRANCH   1   9
ATOM      9  C   UNL     1       0.790  -1.704  -0.264  1.00  0.00    +0.089 A 
ATOM     10  C   UNL     1       1.289  -2.581  -1.237  1.00  0.00    +0.173 A 
ATOM     11  C   UNL     1       1.735  -0.901   0.393  1.00  0.00    +0.161 A 
ATOM     12  C   UNL     1       2.638  -2.614  -1.573  1.00  0.00    +0.197 A 
ATOM     13  C   UNL     1       3.109  -0.902   0.071  1.00  0.00    +0.115 A 
ATOM     14  C   UNL     1       3.538  -1.775  -0.933  1.00  0.00    +0.188 A 
ATOM     15  F   UNL     1       0.467  -3.461  -1.828  1.00  0.00    -0.203 F 
ATOM     16  F   UNL     1       1.349  -0.096   1.395  1.00  0.00    -0.204 F 
ATOM     17  F   UNL     1       3.073  -3.483  -2.497  1.00  0.00    -0.200 F 
ATOM     18  F   UNL     1       4.840  -1.875  -1.243  1.00  0.00    -0.201 F 
BRANCH  13  19
ATOM     19  N   UNL     1       3.958  -0.004   0.749  1.00  0.00    -0.347 N 
ATOM     20  H   UNL     1       3.618   0.281   1.666  1.00  0.00    +0.167 HD
BRANCH  19  21
ATOM     21  C   UNL     1       5.133   0.669   0.351  1.00  0.00    +0.088 A 
ATOM     22  C   UNL     1       5.427   0.958  -0.993  1.00  0.00    +0.147 A 
ATOM     23  C   UNL     1       6.099   1.044   1.306  1.00  0.00    +0.040 A 
ATOM     24  C   UNL     1       6.617   1.580  -1.375  1.00  0.00    +0.041 A 
ATOM     25  C   UNL     1       7.298   1.669   0.931  1.00  0.00    +0.017 A 
ATOM     26  C   UNL     1       7.556   1.933  -0.412  1.00  0.00    +0.004 A 
ATOM     27  F   UNL     1       4.531   0.695  -1.957  1.00  0.00    -0.205 F 
ATOM     28  I   UNL     1       5.809   0.685   3.361  1.00  0.00    -0.042 I 
ENDBRANCH  19  21
ENDBRANCH  13  19
ENDBRANCH   1   9
BRANCH   3  29
ATOM     29  C   UNL     1      -2.911   0.999  -0.206  1.00  0.00    +0.121 C 
BRANCH  29  30
ATOM     30  C   UNL     1      -4.347   1.489  -0.231  1.00  0.00    -0.018 A 
ATOM     31  C   UNL     1      -5.124   1.201  -1.371  1.00  0.00    +0.045 A 
ATOM     32  C   UNL     1      -4.951   2.212   0.816  1.00  0.00    +0.018 A 
ATOM     33  C   UNL     1      -6.451   1.612  -1.450  1.00  0.00    +0.123 A 
ATOM     34  C   UNL     1      -6.292   2.621   0.721  1.00  0.00    +0.018 A 
ATOM     35  C   UNL     1      -7.042   2.318  -0.414  1.00  0.00    +0.040 A 
ATOM     36  I   UNL     1      -3.938   2.761   2.575  1.00  0.00    -0.044 I 
ATOM     37  F   UNL     1      -7.166   1.320  -2.543  1.00  0.00    -0.207 F 
ENDBRANCH  29  30
ENDBRANCH   3  29
TORSDOF 6
