REMARK SMILES CC(C)(C)c1nc(Nc2ccc(NS(=O)(=O)c3c(F)cccc3F)c(F)c2)c(-c2ccncc2)s1
REMARK SMILES IDX 9 1 10 2 11 3 12 4 25 5 26 6 27 7 8 8 7 10 5 11 6 12 35 13
REMARK SMILES IDX 28 14 2 15 1 16 3 17 4 18 29 19 30 20 34 21 31 22 33 23
REMARK SMILES IDX 32 24 13 25 14 27 15 28 16 29 17 30 18 31 23 32 20 33 22 34
REMARK SMILES IDX 21 35 19 36 24 37
REMARK H PARENT 8 9 13 26
ROOT
ATOM      1  C   UNL     1       0.208   0.142  -0.234  1.00  0.00    +0.043 A 
ATOM      2  C   UNL     1       1.299   0.153  -1.120  1.00  0.00    +0.028 A 
ATOM      3  C   UNL     1       2.483  -0.531  -0.823  1.00  0.00    +0.032 A 
ATOM      4  C   UNL     1       2.584  -1.242   0.369  1.00  0.00    +0.085 A 
ATOM      5  C   UNL     1       1.510  -1.244   1.259  1.00  0.00    +0.149 A 
ATOM      6  F   UNL     1       1.608  -1.915   2.417  1.00  0.00    -0.205 F 
ATOM      7  C   UNL     1       0.331  -0.566   0.965  1.00  0.00    +0.067 A 
ENDROOT
BRANCH   1   8
ATOM      8  N   UNL     1      -0.972   0.821  -0.615  1.00  0.00    -0.339 N 
ATOM      9  H   UNL     1      -0.744   1.763  -0.929  1.00  0.00    +0.168 HD
BRANCH   8  10
ATOM     10  C   UNL     1      -2.231   0.721  -0.127  1.00  0.00    +0.149 A 
ATOM     11  C   UNL     1      -4.119   1.697   0.490  1.00  0.00    +0.101 A 
ATOM     12  N   UNL     1      -2.913   1.907   0.003  1.00  0.00    -0.223 NA
ATOM     13  S   UNL     1      -4.498   0.037   0.762  1.00  0.00    -0.116 S 
ATOM     14  C   UNL     1      -2.944  -0.427   0.184  1.00  0.00    +0.079 A 
BRANCH  11  15
ATOM     15  C   UNL     1      -5.124   2.807   0.790  1.00  0.00    +0.014 C 
ATOM     16  C   UNL     1      -6.392   2.637  -0.067  1.00  0.00    +0.018 C 
ATOM     17  C   UNL     1      -4.503   4.180   0.453  1.00  0.00    +0.018 C 
ATOM     18  C   UNL     1      -5.501   2.811   2.283  1.00  0.00    +0.018 C 
ENDBRANCH  11  15
BRANCH  14  19
ATOM     19  C   UNL     1      -2.616  -1.849   0.043  1.00  0.00    -0.001 A 
ATOM     20  C   UNL     1      -2.787  -2.747   1.101  1.00  0.00    +0.030 A 
ATOM     21  C   UNL     1      -2.106  -2.335  -1.164  1.00  0.00    +0.030 A 
ATOM     22  C   UNL     1      -2.441  -4.074   0.907  1.00  0.00    +0.111 A 
ATOM     23  C   UNL     1      -1.790  -3.680  -1.260  1.00  0.00    +0.111 A 
ATOM     24  N   UNL     1      -1.947  -4.561  -0.251  1.00  0.00    -0.265 NA
ENDBRANCH  14  19
ENDBRANCH   8  10
ENDBRANCH   1   8
BRANCH   4  25
ATOM     25  N   UNL     1       3.801  -1.901   0.727  1.00  0.00    -0.276 N 
ATOM     26  H   UNL     1       3.695  -2.702   1.355  1.00  0.00    +0.180 HD
BRANCH  25  27
ATOM     27  S   UNL     1       5.062  -0.921   1.304  1.00  0.00    +0.267 S 
ATOM     28  O   UNL     1       4.493   0.311   1.804  1.00  0.00    -0.201 OA
ATOM     29  O   UNL     1       5.874  -1.759   2.161  1.00  0.00    -0.201 OA
BRANCH  27  30
ATOM     30  C   UNL     1       6.001  -0.609  -0.138  1.00  0.00    +0.158 A 
ATOM     31  C   UNL     1       6.516  -1.684  -0.852  1.00  0.00    +0.146 A 
ATOM     32  C   UNL     1       6.258   0.684  -0.571  1.00  0.00    +0.146 A 
ATOM     33  C   UNL     1       7.276  -1.475  -2.002  1.00  0.00    +0.041 A 
ATOM     34  C   UNL     1       7.018   0.904  -1.720  1.00  0.00    +0.041 A 
ATOM     35  C   UNL     1       7.529  -0.176  -2.440  1.00  0.00    +0.006 A 
ATOM     36  F   UNL     1       6.288  -2.947  -0.467  1.00  0.00    -0.205 F 
ATOM     37  F   UNL     1       5.794   1.756   0.082  1.00  0.00    -0.205 F 
ENDBRANCH  27  30
ENDBRANCH  25  27
ENDBRANCH   4  25
TORSDOF 7
