REMARK SMILES C=CC(=O)Nc1cc(Nc2nccc(-c3cn(C)c4ccccc34)n2)c(OC)cc1N(C)CCN(C)C
REMARK SMILES IDX 6 1 7 2 8 3 26 4 29 5 30 6 5 7 3 8 4 9 2 11 1 12 31 13 32 14
REMARK SMILES IDX 33 15 34 16 35 17 36 18 37 19 9 20 10 22 11 23 25 24 12 25
REMARK SMILES IDX 14 26 13 27 15 28 16 29 24 30 17 31 23 32 19 33 22 34 20 35
REMARK SMILES IDX 21 36 18 37 27 38 28 39
REMARK H PARENT 5 10 9 21
ROOT
ATOM      1  C   UNL     1      -2.619  -0.421   0.355  1.00  0.00    +0.067 A 
ATOM      2  C   UNL     1      -1.241  -0.625   0.243  1.00  0.00    +0.058 A 
ATOM      3  C   UNL     1      -0.332   0.261   0.837  1.00  0.00    +0.086 A 
ATOM      4  C   UNL     1      -0.839   1.369   1.557  1.00  0.00    +0.144 A 
ATOM      5  C   UNL     1      -2.219   1.572   1.679  1.00  0.00    +0.076 A 
ATOM      6  C   UNL     1      -3.127   0.693   1.073  1.00  0.00    +0.064 A 
ENDROOT
BRANCH   1   7
ATOM      7  N   UNL     1      -3.594  -1.264  -0.223  1.00  0.00    -0.321 N 
ATOM      8  C   UNL     1      -3.420  -2.410  -0.959  1.00  0.00    +0.247 C 
ATOM      9  O   UNL     1      -2.367  -2.961  -1.247  1.00  0.00    -0.270 OA
ATOM     10  H   UNL     1      -4.531  -0.917  -0.048  1.00  0.00    +0.170 HD
BRANCH   8  11
ATOM     11  C   UNL     1      -4.728  -2.973  -1.406  1.00  0.00    +0.064 C 
ATOM     12  C   UNL     1      -4.778  -4.093  -2.138  1.00  0.00    +0.014 C 
ENDBRANCH   8  11
ENDBRANCH   1   7
BRANCH   6  13
ATOM     13  N   UNL     1      -4.548   0.839   1.187  1.00  0.00    -0.372 N 
ATOM     14  C   UNL     1      -4.989   0.177   2.429  1.00  0.00    +0.143 C 
BRANCH  13  15
ATOM     15  C   UNL     1      -5.065   2.227   1.065  1.00  0.00    +0.131 C 
BRANCH  15  16
ATOM     16  C   UNL     1      -4.832   2.888  -0.319  1.00  0.00    +0.105 C 
BRANCH  16  17
ATOM     17  N   UNL     1      -5.715   2.541  -1.450  1.00  0.00    -0.308 NA
ATOM     18  C   UNL     1      -5.546   1.162  -1.890  1.00  0.00    +0.105 C 
ATOM     19  C   UNL     1      -7.119   2.845  -1.202  1.00  0.00    +0.105 C 
ENDBRANCH  16  17
ENDBRANCH  15  16
ENDBRANCH  13  15
ENDBRANCH   6  13
BRANCH   3  20
ATOM     20  N   UNL     1       1.063   0.112   0.762  1.00  0.00    -0.321 N 
ATOM     21  H   UNL     1       1.587   0.835   1.238  1.00  0.00    +0.170 HD
BRANCH  20  22
ATOM     22  C   UNL     1       1.925  -0.787   0.151  1.00  0.00    +0.227 A 
ATOM     23  N   UNL     1       1.470  -1.821  -0.567  1.00  0.00    -0.221 NA
ATOM     24  N   UNL     1       3.231  -0.543   0.333  1.00  0.00    -0.213 NA
ATOM     25  C   UNL     1       2.373  -2.644  -1.124  1.00  0.00    +0.117 A 
ATOM     26  C   UNL     1       4.112  -1.383  -0.253  1.00  0.00    +0.078 A 
ATOM     27  C   UNL     1       3.725  -2.472  -0.998  1.00  0.00    +0.049 A 
BRANCH  26  28
ATOM     28  C   UNL     1       5.521  -1.088  -0.030  1.00  0.00    +0.026 A 
ATOM     29  C   UNL     1       5.995  -0.632   1.186  1.00  0.00    +0.096 A 
ATOM     30  C   UNL     1       6.650  -1.185  -0.909  1.00  0.00    +0.009 A 
ATOM     31  N   UNL     1       7.349  -0.474   1.089  1.00  0.00    -0.350 N 
ATOM     32  C   UNL     1       6.821  -1.543  -2.265  1.00  0.00    +0.011 A 
ATOM     33  C   UNL     1       7.782  -0.807  -0.177  1.00  0.00    +0.048 A 
ATOM     34  C   UNL     1       8.099  -1.537  -2.834  1.00  0.00    +0.001 A 
ATOM     35  C   UNL     1       9.069  -0.799  -0.738  1.00  0.00    +0.027 A 
ATOM     36  C   UNL     1       9.207  -1.173  -2.077  1.00  0.00    +0.002 A 
ATOM     37  C   UNL     1       8.201  -0.013   2.163  1.00  0.00    +0.149 C 
ENDBRANCH  26  28
ENDBRANCH  20  22
ENDBRANCH   3  20
BRANCH   4  38
ATOM     38  O   UNL     1       0.122   2.183   2.119  1.00  0.00    -0.494 OA
ATOM     39  C   UNL     1      -0.316   3.398   2.711  1.00  0.00    +0.278 C 
ENDBRANCH   4  38
TORSDOF 10
