REMARK SMILES CCN(CC)Cc1ccc2[nH]c(Cc3ccc(O)cc3)nc2c1
REMARK SMILES IDX 7 1 8 2 9 3 10 4 11 5 12 6 21 7 22 8 23 9 6 11 3 12 2 13
REMARK SMILES IDX 1 14 4 15 5 16 13 17 14 18 15 19 20 20 16 21 19 22 17 23
REMARK SMILES IDX 18 24
REMARK H PARENT 11 10 18 25
ROOT
ATOM      1  C   UNL     1       2.145   0.951   0.952  1.00  0.00    -0.032 A 
ATOM      2  C   UNL     1       1.602   0.258   2.050  1.00  0.00    +0.007 A 
ATOM      3  C   UNL     1       0.220   0.156   2.256  1.00  0.00    +0.029 A 
ATOM      4  C   UNL     1      -0.599   0.783   1.319  1.00  0.00    +0.066 A 
ATOM      5  N   UNL     1      -1.960   0.890   1.204  1.00  0.00    -0.342 N 
ATOM      6  C   UNL     1      -2.245   1.624   0.075  1.00  0.00    +0.111 A 
ATOM      7  N   UNL     1      -1.134   1.997  -0.530  1.00  0.00    -0.233 NA
ATOM      8  C   UNL     1      -0.108   1.483   0.225  1.00  0.00    +0.089 A 
ATOM      9  C   UNL     1       1.278   1.576   0.035  1.00  0.00    +0.035 A 
ATOM     10  H   UNL     1      -2.644   0.478   1.823  1.00  0.00    +0.168 HD
ENDROOT
BRANCH   1  11
ATOM     11  C   UNL     1       3.650   1.035   0.767  1.00  0.00    +0.120 C 
BRANCH  11  12
ATOM     12  N   UNL     1       4.285  -0.015  -0.055  1.00  0.00    -0.300 NA
BRANCH  12  13
ATOM     13  C   UNL     1       4.078  -1.356   0.511  1.00  0.00    +0.081 C 
ATOM     14  C   UNL     1       4.977  -2.435  -0.081  1.00  0.00    +0.021 C 
ENDBRANCH  12  13
BRANCH  12  15
ATOM     15  C   UNL     1       3.940   0.093  -1.478  1.00  0.00    +0.081 C 
ATOM     16  C   UNL     1       5.180  -0.022  -2.358  1.00  0.00    +0.021 C 
ENDBRANCH  12  15
ENDBRANCH  11  12
ENDBRANCH   1  11
BRANCH   6  17
ATOM     17  C   UNL     1      -3.641   1.944  -0.354  1.00  0.00    +0.110 C 
BRANCH  17  18
ATOM     18  C   UNL     1      -4.613   0.799  -0.163  1.00  0.00    -0.040 A 
ATOM     19  C   UNL     1      -5.580   0.844   0.852  1.00  0.00    +0.008 A 
ATOM     20  C   UNL     1      -4.540  -0.336  -0.987  1.00  0.00    +0.008 A 
ATOM     21  C   UNL     1      -6.454  -0.227   1.039  1.00  0.00    +0.046 A 
ATOM     22  C   UNL     1      -5.416  -1.407  -0.799  1.00  0.00    +0.046 A 
ATOM     23  C   UNL     1      -6.366  -1.342   0.214  1.00  0.00    +0.115 A 
BRANCH  23  24
ATOM     24  O   UNL     1      -7.240  -2.365   0.435  1.00  0.00    -0.508 OA
ATOM     25  H   UNL     1      -7.084  -3.055  -0.232  1.00  0.00    +0.293 HD
ENDBRANCH  23  24
ENDBRANCH  17  18
ENDBRANCH   6  17
TORSDOF 7
