REMARK SMILES CN(C)C(=O)c1cc2cnc(Nc3ccc(N4CCNCC4)cn3)nc2n1C1CCCC1
REMARK SMILES IDX 12 1 11 3 6 4 7 5 27 6 8 7 26 8 9 9 25 10 10 11 4 12 2 13
REMARK SMILES IDX 5 14 1 15 3 16 28 17 29 18 32 19 30 20 31 21 13 22 14 23
REMARK SMILES IDX 24 24 15 25 23 26 16 27 17 28 18 29 22 30 19 31 21 32 20 33
REMARK H PARENT 12 2 20 34
ROOT
ATOM      1  N   UNL     1      -0.950  -1.139   0.589  1.00  0.00    -0.309 N 
ATOM      2  H   UNL     1      -0.405  -1.955   0.353  1.00  0.00    +0.171 HD
ENDROOT
BRANCH   1   3
ATOM      3  C   UNL     1      -0.059  -0.065   0.612  1.00  0.00    +0.230 A 
ATOM      4  C   UNL     1       4.001   1.823   0.562  1.00  0.00    +0.109 A 
ATOM      5  C   UNL     1       2.933   2.698   0.727  1.00  0.00    +0.045 A 
ATOM      6  N   UNL     1       3.460   0.549   0.451  1.00  0.00    -0.318 N 
ATOM      7  C   UNL     1       1.737   1.947   0.734  1.00  0.00    +0.038 A 
ATOM      8  C   UNL     1       2.087   0.621   0.559  1.00  0.00    +0.146 A 
ATOM      9  C   UNL     1       0.380   2.210   0.860  1.00  0.00    +0.127 A 
ATOM     10  N   UNL     1       1.236  -0.417   0.502  1.00  0.00    -0.194 NA
ATOM     11  N   UNL     1      -0.503   1.191   0.814  1.00  0.00    -0.221 NA
BRANCH   4  12
ATOM     12  C   UNL     1       5.410   2.155   0.440  1.00  0.00    +0.270 C 
ATOM     13  N   UNL     1       5.959   3.009   1.397  1.00  0.00    -0.343 N 
ATOM     14  O   UNL     1       6.086   1.714  -0.488  1.00  0.00    -0.267 OA
ATOM     15  C   UNL     1       7.301   3.520   1.185  1.00  0.00    +0.146 C 
ATOM     16  C   UNL     1       5.365   3.289   2.697  1.00  0.00    +0.146 C 
ENDBRANCH   4  12
BRANCH   6  17
ATOM     17  C   UNL     1       4.214  -0.684   0.277  1.00  0.00    +0.089 C 
ATOM     18  C   UNL     1       3.860  -1.472  -0.999  1.00  0.00    +0.025 C 
ATOM     19  C   UNL     1       4.075  -1.675   1.445  1.00  0.00    +0.025 C 
ATOM     20  C   UNL     1       3.448  -2.863  -0.524  1.00  0.00    +0.002 C 
ATOM     21  C   UNL     1       4.190  -3.043   0.789  1.00  0.00    +0.002 C 
ENDBRANCH   6  17
ENDBRANCH   1   3
BRANCH   1  22
ATOM     22  C   UNL     1      -2.216  -1.164  -0.017  1.00  0.00    +0.132 A 
ATOM     23  C   UNL     1      -3.015  -2.284   0.194  1.00  0.00    +0.049 A 
ATOM     24  N   UNL     1      -2.649  -0.156  -0.792  1.00  0.00    -0.237 NA
ATOM     25  C   UNL     1      -4.283  -2.356  -0.391  1.00  0.00    +0.031 A 
ATOM     26  C   UNL     1      -3.887  -0.254  -1.346  1.00  0.00    +0.139 A 
ATOM     27  C   UNL     1      -4.777  -1.316  -1.182  1.00  0.00    +0.055 A 
BRANCH  27  28
ATOM     28  N   UNL     1      -6.039  -1.410  -1.774  1.00  0.00    -0.368 N 
ATOM     29  C   UNL     1      -6.428  -0.455  -2.834  1.00  0.00    +0.132 C 
ATOM     30  C   UNL     1      -7.166  -1.736  -0.867  1.00  0.00    +0.132 C 
ATOM     31  C   UNL     1      -7.127   0.797  -2.254  1.00  0.00    +0.102 C 
ATOM     32  C   UNL     1      -7.827  -0.448  -0.320  1.00  0.00    +0.102 C 
ATOM     33  N   UNL     1      -8.278   0.478  -1.382  1.00  0.00    -0.313 NA
ATOM     34  H   UNL     1      -8.977  -0.006  -1.946  1.00  0.00    +0.122 HD
ENDBRANCH  27  28
ENDBRANCH   1  22
TORSDOF 5
