REMARK SMILES O=C(CCCCCCC(=O)Nc1ccccc1)NO
REMARK SMILES IDX 5 1 4 2 3 3 2 4 1 5 18 6 19 8 6 10 7 11 8 12 9 13 10 14
REMARK SMILES IDX 11 15 12 17 13 18 17 19 14 20 16 21 15 22
REMARK H PARENT 18 7 19 9 11 16
ROOT
ATOM      1  C   UNL     1       1.687  -1.544  -0.173  1.00  0.00    +0.001 C 
ENDROOT
BRANCH   1   2
ATOM      2  C   UNL     1       2.974  -0.785  -0.496  1.00  0.00    +0.010 C 
BRANCH   2   3
ATOM      3  C   UNL     1       3.816  -0.563   0.759  1.00  0.00    +0.102 C 
BRANCH   3   4
ATOM      4  C   UNL     1       5.071   0.233   0.471  1.00  0.00    +0.243 C 
ATOM      5  O   UNL     1       5.345   0.740  -0.614  1.00  0.00    -0.273 OA
ATOM      6  N   UNL     1       5.903   0.354   1.563  1.00  0.00    -0.238 N 
ATOM      7  H   UNL     1       5.553   0.284   2.512  1.00  0.00    +0.198 HD
BRANCH   6   8
ATOM      8  O   UNL     1       7.014   1.211   1.373  1.00  0.00    -0.289 OA
ATOM      9  H   UNL     1       6.926   1.464   0.427  1.00  0.00    +0.246 HD
ENDBRANCH   6   8
ENDBRANCH   3   4
ENDBRANCH   2   3
ENDBRANCH   1   2
BRANCH   1  10
ATOM     10  C   UNL     1       0.877  -1.932  -1.413  1.00  0.00    +0.001 C 
BRANCH  10  11
ATOM     11  C   UNL     1       0.444  -0.779  -2.327  1.00  0.00    +0.010 C 
BRANCH  11  12
ATOM     12  C   UNL     1      -0.357   0.331  -1.647  1.00  0.00    +0.100 C 
BRANCH  12  13
ATOM     13  C   UNL     1      -1.743  -0.095  -1.182  1.00  0.00    +0.224 C 
ATOM     14  O   UNL     1      -2.220  -1.188  -1.458  1.00  0.00    -0.275 OA
ATOM     15  N   UNL     1      -2.356   0.912  -0.451  1.00  0.00    -0.326 N 
ATOM     16  H   UNL     1      -1.837   1.774  -0.343  1.00  0.00    +0.169 HD
BRANCH  15  17
ATOM     17  C   UNL     1      -3.632   0.886   0.149  1.00  0.00    +0.041 A 
ATOM     18  C   UNL     1      -4.043   2.043   0.826  1.00  0.00    +0.026 A 
ATOM     19  C   UNL     1      -4.493  -0.211   0.110  1.00  0.00    +0.026 A 
ATOM     20  C   UNL     1      -5.293   2.100   1.450  1.00  0.00    +0.002 A 
ATOM     21  C   UNL     1      -5.744  -0.155   0.734  1.00  0.00    +0.002 A 
ATOM     22  C   UNL     1      -6.144   1.000   1.404  1.00  0.00    +0.000 A 
ENDBRANCH  15  17
ENDBRANCH  12  13
ENDBRANCH  11  12
ENDBRANCH  10  11
ENDBRANCH   1  10
TORSDOF 9
